
                                 *****************
                                 * O   R   C   A *
                                 *****************

           --- An Ab Initio, DFT and Semiempirical electronic structure package ---

                  #######################################################
                  #                        -***-                        #
                  #          Department of theory and spectroscopy      #
                  #               Directorship: Frank Neese             #
                  #        Max Planck Institute fuer Kohlenforschung    #
                  #                Kaiser Wilhelm Platz 1               #
                  #                 D-45470 Muelheim/Ruhr               #
                  #                      Germany                        #
                  #                                                     #
                  #                  All rights reserved                #
                  #                        -***-                        #
                  #######################################################


                         Program Version 4.2.1 -  RELEASE  -


 With contributions from (in alphabetic order):
   Daniel Aravena         : Magnetic Suceptibility
   Michael Atanasov       : Ab Initio Ligand Field Theory (pilot matlab implementation)
   Alexander A. Auer      : GIAO ZORA, VPT2
   Ute Becker             : Parallelization
   Giovanni Bistoni       : ED, misc. LED, open-shell LED, HFLD
   Martin Brehm           : Molecular dynamics
   Dmytro Bykov           : SCF Hessian
   Vijay G. Chilkuri      : MRCI spin determinant printing, contributions to CSF-ICE
   Dipayan Datta          : RHF DLPNO-CCSD density
   Achintya Kumar Dutta   : EOM-CC, STEOM-CC
   Dmitry Ganyushin       : Spin-Orbit,Spin-Spin,Magnetic field MRCI
   Miquel Garcia          : C-PCM Hessian, Gaussian charge scheme
   Yang Guo               : DLPNO-NEVPT2, CIM, IAO-localization
   Andreas Hansen         : Spin unrestricted coupled pair/coupled cluster methods
   Benjamin Helmich-Paris : CASSCF linear response (MC-RPA)
   Lee Huntington         : MR-EOM, pCC
   Robert Izsak           : Overlap fitted RIJCOSX, COSX-SCS-MP3, EOM
   Christian Kollmar      : KDIIS, OOCD, Brueckner-CCSD(T), CCSD density
   Simone Kossmann        : Meta GGA functionals, TD-DFT gradient, OOMP2, MP2 Hessian
   Martin Krupicka        : AUTO-CI
   Lucas Lang             : DCDCAS
   Dagmar Lenk            : GEPOL surface, SMD
   Dimitrios Liakos       : Extrapolation schemes; Compound Job, initial MDCI parallelization
   Dimitrios Manganas     : Further ROCIS development; embedding schemes
   Dimitrios Pantazis     : SARC Basis sets
   Taras Petrenko         : DFT Hessian,TD-DFT gradient, ASA, ECA, R-Raman, ABS, FL, XAS/XES, NRVS
   Peter Pinski           : DLPNO-MP2, DLPNO-MP2 Gradient
   Christoph Reimann      : Effective Core Potentials
   Marius Retegan         : Local ZFS, SOC
   Christoph Riplinger    : Optimizer, TS searches, QM/MM, DLPNO-CCSD(T), (RO)-DLPNO pert. Triples
   Tobias Risthaus        : Range-separated hybrids, TD-DFT gradient, RPA, STAB
   Michael Roemelt        : Original ROCIS implementation
   Masaaki Saitow         : Open-shell DLPNO-CCSD energy and density
   Barbara Sandhoefer     : DKH picture change effects
   Avijit Sen             : IP-ROCIS
   Kantharuban Sivalingam : CASSCF convergence, NEVPT2, FIC-MRCI
   Bernardo de Souza      : ESD, SOC TD-DFT
   Georgi Stoychev        : AutoAux, RI-MP2 NMR
   Willem Van den Heuvel  : Paramagnetic NMR
   Boris Wezisla          : Elementary symmetry handling
   Frank Wennmohs         : Technical directorship


 We gratefully acknowledge several colleagues who have allowed us to
 interface, adapt or use parts of their codes:
   Stefan Grimme, W. Hujo, H. Kruse,             : VdW corrections, initial TS optimization,
                  C. Bannwarth                     DFT functionals, gCP, sTDA/sTD-DF
   Ed Valeev, F. Pavosevic, A. Kumar             : LibInt (2-el integral package), F12 methods
   Garnet Chan, S. Sharma, J. Yang, R. Olivares  : DMRG
   Ulf Ekstrom                                   : XCFun DFT Library
   Mihaly Kallay                                 : mrcc  (arbitrary order and MRCC methods)
   Andreas Klamt, Michael Diedenhofen            : otool_cosmo (COSMO solvation model)
   Jiri Pittner, Ondrej Demel                    : Mk-CCSD
   Frank Weinhold                                : gennbo (NPA and NBO analysis)
   Christopher J. Cramer and Donald G. Truhlar   : smd solvation model
   Lars Goerigk                                  : TD-DFT with DH, B97 family of functionals
   V. Asgeirsson, H. Jonsson                     : NEB implementation
   FAccTs GmbH                                   : IRC, NEB, NEB-TS, Multilevel, MM, QM/MM, CI optimization
   S Lehtola, MJT Oliveira, MAL Marques          : LibXC Library


 Your calculation uses the libint2 library for the computation of 2-el integrals
 For citations please refer to: http://libint.valeyev.net

 Your ORCA version has been built with support for libXC version: 4.2.3
 For citations please refer to: https://tddft.org/programs/libxc/

 This ORCA versions uses:
   CBLAS   interface :  Fast vector & matrix operations
   LAPACKE interface :  Fast linear algebra routines
   SCALAPACK package :  Parallel linear algebra routines




***************************************
The coordinates will be read from file: init.xyz
***************************************


Your calculation utilizes the semiempirical GFN2-xTB method
Please cite in your paper:
C. Bannwarth, Ehlert S., S. Grimme,  J. Chem. Theory Comput., 15, (2019), 1652.
   

----- Orbital basis set information -----
Your calculation utilizes the basis: def2-SVP
   F. Weigend and R. Ahlrichs, Phys. Chem. Chem. Phys. 7, 3297 (2005).

================================================================================
                                        WARNINGS
                       Please study these warnings very carefully!
================================================================================


WARNING: The environment variable RSH_COMMAND is not set!
  ===> : All Displacements for the Numerical Hessian calculation
         will be started on localhost

WARNING: Geometry Optimization
  ===> : Switching off AutoStart
         For restart on a previous wavefunction, please use MOREAD

WARNING: Found dipole moment calculation with XTB calculation
  ===> : Switching off dipole moment calculation


INFO   : the flag for use of LIBINT has been found!

================================================================================
                                       INPUT FILE
================================================================================
NAME = opt+numfreq.inp
|  1> ! xTB2 Opt NumFreq
|  2> 
|  3> *xyzfile 0 1 init.xyz
|  4> 
|  5> %pal
|  6>  nprocs 2
|  7> end
|  8> 
|  9>                          ****END OF INPUT****
================================================================================

                       *****************************
                       * Geometry Optimization Run *
                       *****************************

Geometry optimization settings:
Update method            Update   .... BFGS
Choice of coordinates    CoordSys .... Z-matrix Internals
Initial Hessian          InHess   .... Almoef's Model

Convergence Tolerances:
Energy Change            TolE     ....  5.0000e-06 Eh
Max. Gradient            TolMAXG  ....  3.0000e-04 Eh/bohr
RMS Gradient             TolRMSG  ....  1.0000e-04 Eh/bohr
Max. Displacement        TolMAXD  ....  4.0000e-03 bohr
RMS Displacement         TolRMSD  ....  2.0000e-03 bohr
Strict Convergence                ....  False
------------------------------------------------------------------------------
                        ORCA OPTIMIZATION COORDINATE SETUP
------------------------------------------------------------------------------

The optimization will be done in new redundant internal coordinates
Making redundant internal coordinates   ...  (new redundants) done
Evaluating the initial hessian          ...  (Almloef) done
Evaluating the coordinates              ...  done
Calculating the B-matrix                .... done
Calculating the G-matrix                .... done
Diagonalizing the G-matrix              .... done
The first mode is                       ....  319
The number of degrees of freedom        ....   60

    -----------------------------------------------------------------
                    Redundant Internal Coordinates


    -----------------------------------------------------------------
         Definition                    Initial Value    Approx d2E/dq
    -----------------------------------------------------------------
      1. B(C   1,C   0)                  1.4936         0.427016   
      2. B(C   2,C   0)                  1.4936         0.427027   
      3. B(H   3,C   0)                  1.0923         0.357005   
      4. B(C   5,C   2)                  1.3733         0.664417   
      5. B(H   6,C   0)                  1.0922         0.357181   
      6. B(H   7,C   1)                  1.0855         0.366093   
      7. B(C   8,C   5)                  1.4344         0.530832   
      8. B(C   8,H   4)                  1.0858         0.365721   
      9. B(C   8,C   1)                  1.3723         0.666859   
     10. B(H   9,C   5)                  1.0852         0.366533   
     11. B(H  10,C   2)                  1.0853         0.366416   
     12. B(C  11,C   5)                  3.5530         0.000221   
     13. B(C  11,C   2)                  3.6381         0.000162   
     14. B(C  11,H   9)                  3.6050         0.000035   
     15. B(C  12,C  11)                  1.4937         0.426792   
     16. B(C  12,H   9)                  3.5851         0.000038   
     17. B(H  13,C  12)                  1.0925         0.356838   
     18. B(H  13,H   9)                  3.0269         0.000056   
     19. B(H  13,C   5)                  3.6230         0.000033   
     20. B(H  14,C  12)                  1.0923         0.357039   
     21. B(H  15,C   2)                  3.5535         0.000042   
     22. B(H  15,C   1)                  3.3513         0.000089   
     23. B(H  15,C   0)                  3.3838         0.000079   
     24. B(H  15,H   6)                  2.8386         0.000112   
     25. B(H  15,C   8)                  3.5241         0.000047   
     26. B(H  15,C   5)                  3.6452         0.000030   
     27. B(H  16,C  11)                  1.0850         0.366752   
     28. B(H  16,C   2)                  3.6474         0.000030   
     29. B(H  16,H  10)                  3.4898         0.000010   
     30. B(C  17,C   2)                  3.5861         0.000196   
     31. B(C  17,C   8)                  3.4830         0.000286   
     32. B(C  17,H   6)                  3.5100         0.000050   
     33. B(C  17,H  15)                  1.0853         0.366394   
     34. B(C  17,C   5)                  3.3927         0.000399   
     35. B(C  17,C  11)                  1.3724         0.666512   
     36. B(C  18,H   4)                  3.4564         0.000060   
     37. B(C  18,C   8)                  3.4770         0.000292   
     38. B(C  18,C  17)                  1.4349         0.529844   
     39. B(C  18,C   5)                  3.6453         0.000158   
     40. B(C  19,H   9)                  3.6698         0.000028   
     41. B(C  19,C  18)                  1.3725         0.666355   
     42. B(C  19,C  12)                  1.4938         0.426657   
     43. B(H  20,H   4)                  3.2567         0.000024   
     44. B(H  20,C  18)                  1.0852         0.366505   
     45. B(H  20,C   8)                  3.5175         0.000048   
     46. B(H  21,C  19)                  1.0851         0.366576   
     47. A(C   1,C   0,C   2)          101.7126         0.380471   
     48. A(C   2,C   0,H   6)          111.4753         0.331104   
     49. A(C   1,C   0,H   3)          111.4846         0.331075   
     50. A(H   3,C   0,H   6)          109.0813         0.290075   
     51. A(C   1,C   0,H   6)          111.5134         0.331103   
     52. A(C   2,C   0,H   3)          111.4559         0.331077   
     53. A(C   0,C   1,C   8)          110.4041         0.411411   
     54. A(H   7,C   1,C   8)          125.3952         0.358301   
     55. A(C   0,C   1,H   7)          124.1994         0.332457   
     56. A(C   5,C   2,H  10)          125.3527         0.358131   
     57. A(C   0,C   2,C  17)           87.7644         0.140165   
     58. A(C  11,C   2,C  17)           21.8871         0.097602   
     59. A(H  10,C   2,C  17)          108.2782         0.131745   
     60. A(H  10,C   2,C  11)           88.0134         0.129937   
     61. A(C   5,C   2,C  17)           70.8205         0.145549   
     62. A(C   0,C   2,C   5)          110.3881         0.411145   
     63. A(C   0,C   2,H  10)          124.2546         0.332507   
     64. A(C   5,C   2,C  11)           75.5239         0.143157   
     65. A(C   0,C   2,C  11)          106.3508         0.138001   
     66. A(C   2,C   5,H   9)          126.2793         0.358151   
     67. A(C   8,C   5,C  17)           81.5128         0.152127   
     68. A(C   2,C   5,C  17)           86.7030         0.155417   
     69. A(C   2,C   5,C  11)           82.4989         0.147128   
     70. A(C   2,C   5,C   8)          108.7227         0.427408   
     71. A(H   9,C   5,C  18)           87.8340         0.129694   
     72. A(H   9,C   5,C  11)           84.0071         0.132942   
     73. A(C   8,C   5,C  11)          103.9417         0.144249   
     74. A(C  17,C   5,C  18)           23.1697         0.099042   
     75. A(H   9,C   5,C  17)           99.3761         0.139208   
     76. A(C  11,C   5,C  18)           36.9422         0.097789   
     77. A(C   8,C   5,C  18)           71.8566         0.140166   
     78. A(C   2,C   5,C  18)          109.6761         0.142832   
     79. A(C  11,C   5,C  17)           22.6403         0.099843   
     80. A(C   8,C   5,H   9)          124.9915         0.344818   
     81. A(H   4,C   8,C   5)          124.9403         0.344690   
     82. A(C   1,C   8,C   5)          108.7722         0.427689   
     83. A(C   1,C   8,H   4)          126.2837         0.358239   
     84. A(C  17,C   8,C  18)           23.7946         0.099715   
     85. A(H   4,C   8,C  18)           79.9184         0.135785   
     86. A(C   1,C   8,C  18)          106.0329         0.150972   
     87. A(C   5,C   8,C  18)           85.0632         0.147853   
     88. A(C   5,C   8,C  17)           74.4513         0.147560   
     89. A(H   4,C   8,C  17)          103.4426         0.135552   
     90. A(C   1,C   8,C  17)           89.1108         0.150663   
     91. A(C   2,C  11,C   5)           21.9772         0.097842   
     92. A(C   5,C  11,C  17)           72.1027         0.147170   
     93. A(C   5,C  11,H  16)          102.0510         0.132948   
     94. A(C   5,C  11,C  12)           93.3702         0.141587   
     95. A(H  16,C  11,C  17)          125.3828         0.358379   
     96. A(C  12,C  11,C  17)          110.3912         0.411334   
     97. A(C  12,C  11,H  16)          124.2205         0.332527   
     98. A(C   2,C  11,H  16)           81.9235         0.129946   
     99. A(C   2,C  11,C  12)          112.2438         0.137995   
    100. A(C   2,C  11,C  17)           76.9254         0.143196   
    101. A(H  14,C  12,C  19)          111.4690         0.331035   
    102. A(H  13,C  12,C  19)          111.4920         0.331004   
    103. A(C  11,C  12,C  19)          101.7133         0.380379   
    104. A(H  13,C  12,H  14)          109.0857         0.290035   
    105. A(C  11,C  12,H  14)          111.4493         0.331052   
    106. A(C  11,C  12,H  13)          111.5135         0.331021   
    107. A(C   2,C  17,C   5)           22.4765         0.099549   
    108. A(C   5,C  17,C  18)           88.3480         0.152100   
    109. A(C   5,C  17,H  15)           94.6669         0.139203   
    110. A(C   5,C  17,C  11)           85.2570         0.155464   
    111. A(H  15,C  17,C  18)          124.9522         0.344688   
    112. A(C  11,C  17,C  18)          108.7588         0.427506   
    113. A(C  11,C  17,H  15)          126.2800         0.358320   
    114. A(C   2,C  17,C  18)          110.6321         0.142725   
    115. A(C   2,C  17,H  15)           79.5603         0.131745   
    116. A(C   2,C  17,C  11)           81.1875         0.145590   
    117. A(C   5,C  17,C   8)           24.0359         0.100493   
    118. A(C   2,C  17,C   8)           37.6315         0.098786   
    119. A(C   8,C  17,C  18)           77.8679         0.147535   
    120. A(C   8,C  17,H  15)           83.2432         0.135571   
    121. A(C   8,C  17,C  11)          109.0614         0.150656   
    122. A(C  17,C  18,C  19)          108.7363         0.427488   
    123. A(C   5,C  18,C   8)           23.0802         0.098362   
    124. A(C   8,C  18,H  20)           83.1960         0.135808   
    125. A(C   8,C  18,C  19)          109.0567         0.150961   
    126. A(C   8,C  18,C  17)           78.3375         0.147828   
    127. A(C   5,C  18,H  20)          105.9407         0.129694   
    128. A(C   5,C  18,C  19)           91.9648         0.142868   
    129. A(C   5,C  18,C  17)           68.4824         0.140144   
    130. A(C  19,C  18,H  20)          126.3185         0.358324   
    131. A(C  17,C  18,H  20)          124.9423         0.344706   
    132. A(C  18,C  19,H  21)          125.3857         0.358335   
    133. A(C  12,C  19,H  21)          124.2138         0.332483   
    134. A(C  12,C  19,C  18)          110.3996         0.411294   
    135. D(C   8,C   1,C   0,H   6)   -119.0861         0.015315   
    136. D(H   7,C   1,C   0,C   2)    179.4302         0.015315   
    137. D(H   7,C   1,C   0,H   3)    -61.6843         0.015315   
    138. D(C   8,C   1,C   0,C   2)     -0.1650         0.015315   
    139. D(C   8,C   1,C   0,H   3)    118.7204         0.015315   
    140. D(H   7,C   1,C   0,H   6)     60.5091         0.015315   
    141. D(H  10,C   2,C   0,C   1)   -179.0777         0.017778   
    142. D(H  10,C   2,C   0,H   3)     62.0165         0.017778   
    143. D(C  17,C   2,C   0,H   6)     50.5509         0.017778   
    144. D(C  11,C   2,C   0,H   6)     38.8502         0.017778   
    145. D(C  17,C   2,C   0,C   1)    -68.3973         0.017778   
    146. D(C  11,C   2,C   0,H   3)    160.9961         0.017778   
    147. D(H  10,C   2,C   0,H   6)    -60.1294         0.017778   
    148. D(C  17,C   2,C   0,H   3)    172.6968         0.017778   
    149. D(C   5,C   2,C   0,C   1)      0.1790         0.017778   
    150. D(C   5,C   2,C   0,H   6)    119.1272         0.017778   
    151. D(C  11,C   2,C   0,C   1)    -80.0980         0.017778   
    152. D(C   5,C   2,C   0,H   3)   -118.7269         0.017778   
    153. D(C  11,C   5,C   2,C  17)    -22.3521         0.050954   
    154. D(H   9,C   5,C   2,C  17)    -99.2151         0.050954   
    155. D(C   8,C   5,C   2,C   0)     -0.1326         0.050954   
    156. D(C   8,C   5,C   2,C  17)     79.8854         0.050954   
    157. D(C  18,C   5,C   2,C   0)    -76.9538         0.050954   
    158. D(C  11,C   5,C   2,H  10)     76.8765         0.050954   
    159. D(C  18,C   5,C   2,C  11)     25.4164         0.050954   
    160. D(C  17,C   5,C   2,H  10)     99.2286         0.050954   
    161. D(C  11,C   5,C   2,C   0)   -102.3702         0.050954   
    162. D(H   9,C   5,C   2,C  11)    -76.8630         0.050954   
    163. D(C  17,C   5,C   2,C   0)    -80.0181         0.050954   
    164. D(C  18,C   5,C   2,H  10)    102.2929         0.050954   
    165. D(H   9,C   5,C   2,H  10)      0.0135         0.050954   
    166. D(C   8,C   5,C   2,C  11)    102.2376         0.050954   
    167. D(C  17,C   5,C   2,C  11)     22.3521         0.050954   
    168. D(C   8,C   5,C   2,H  10)    179.1141         0.050954   
    169. D(H   9,C   5,C   2,C   0)   -179.2332         0.050954   
    170. D(C  18,C   5,C   2,C  17)      3.0643         0.050954   
    171. D(C  18,C   8,C   5,C  11)    -18.5699         0.031400   
    172. D(C  17,C   8,C   5,C  18)     21.6805         0.031400   
    173. D(C  17,C   8,C   5,C  11)      3.1106         0.031400   
    174. D(C   1,C   8,C   5,C  11)     86.7040         0.031400   
    175. D(C   1,C   8,C   5,H   9)    179.1374         0.031400   
    176. D(C   1,C   8,C   5,C  18)    105.2739         0.031400   
    177. D(H   4,C   8,C   5,C  17)    -95.7373         0.031400   
    178. D(H   4,C   8,C   5,C  18)    -74.0568         0.031400   
    179. D(H   4,C   8,C   5,C   2)   -179.3082         0.031400   
    180. D(C  18,C   8,C   5,H   9)     73.8635         0.031400   
    181. D(C   1,C   8,C   5,C   2)      0.0225         0.031400   
    182. D(C   1,C   8,C   5,C  17)     83.5934         0.031400   
    183. D(C  18,C   8,C   5,C  17)    -21.6805         0.031400   
    184. D(H   4,C   8,C   5,C  11)    -92.6267         0.031400   
    185. D(C  18,C   8,C   1,C   0)     90.2744         0.043286   
    186. D(C  17,C   8,C   1,C   0)     73.3328         0.043286   
    187. D(H   4,C   8,C   5,H   9)     -0.1933         0.031400   
    188. D(H   4,C   8,C   1,H   7)     -0.1733         0.043286   
    189. D(C   5,C   8,C   1,C   0)      0.0967         0.043286   
    190. D(H   4,C   8,C   1,C   0)    179.4160         0.043286   
    191. D(C   5,C   8,C   1,H   7)   -179.4926         0.043286   
    192. D(C  18,C   8,C   5,C   2)   -105.2514         0.031400   
    193. D(C  17,C   8,C   1,H   7)   -106.2565         0.043286   
    194. D(C  17,C   8,C   5,H   9)     95.5440         0.031400   
    195. D(C  17,C   8,C   5,C   2)    -83.5710         0.031400   
    196. D(C  18,C   8,C   1,H   7)    -89.3150         0.043286   
    197. D(C   2,C  11,C   5,C  18)   -137.7455         0.001500   
    198. D(C   2,C  11,C   5,C  17)    -99.4973         0.001500   
    199. D(C   2,C  11,C   5,H   9)    127.8743         0.001500   
    200. D(C   2,C  11,C   5,C   8)   -107.5116         0.001500   
    201. D(C  17,C  11,C   5,C   8)     -8.0143         0.001500   
    202. D(H  16,C  11,C   2,C   0)    -96.3689         0.001500   
    203. D(C  12,C  11,C   2,C   0)    139.8759         0.001500   
    204. D(C  17,C  11,C   2,C   0)     32.9294         0.001500   
    205. D(H  16,C  11,C   5,H   9)    103.7813         0.001500   
    206. D(C  12,C  11,C   5,C  17)    110.3506         0.001500   
    207. D(H  16,C  11,C   5,C  18)   -161.8386         0.001500   
    208. D(C  12,C  11,C   5,C   2)   -150.1521         0.001500   
    209. D(C  12,C  11,C   5,C   8)    102.3363         0.001500   
    210. D(C   5,C  11,C   2,C  17)     74.4815         0.001500   
    211. D(C  12,C  11,C   5,C  18)     72.1023         0.001500   
    212. D(C   5,C  11,C   2,H  10)   -127.3653         0.001500   
    213. D(C   5,C  11,C   2,C   0)    107.4109         0.001500   
    214. D(C  17,C  11,C   2,H  10)    158.1532         0.001500   
    215. D(C  17,C  11,C   2,C   5)    -74.4815         0.001500   
    216. D(H  16,C  11,C   5,C   2)    -24.0930         0.001500   
    217. D(C  12,C  11,C   5,H   9)    -22.2778         0.001500   
    218. D(H  16,C  11,C   5,C  17)   -123.5903         0.001500   
    219. D(H  16,C  11,C   2,C  17)   -129.2983         0.001500   
    220. D(H  16,C  11,C   2,H  10)     28.8549         0.001500   
    221. D(H  16,C  11,C   2,C   5)    156.2202         0.001500   
    222. D(C  17,C  11,C   5,C   2)     99.4973         0.001500   
    223. D(C  17,C  11,C   5,C  18)    -38.2483         0.001500   
    224. D(C  12,C  11,C   2,C  17)    106.9465         0.001500   
    225. D(C  12,C  11,C   2,H  10)    -94.9003         0.001500   
    226. D(C  12,C  11,C   2,C   5)     32.4650         0.001500   
    227. D(C  17,C  11,C   5,H   9)   -132.6284         0.001500   
    228. D(H  16,C  11,C   5,C   8)   -131.6046         0.001500   
    229. D(C  19,C  12,C  11,C  17)      0.2755         0.016971   
    230. D(C  19,C  12,C  11,C   2)    -83.4831         0.016971   
    231. D(H  14,C  12,C  11,C   2)    157.6320         0.016971   
    232. D(C  19,C  12,C  11,C   5)    -71.8740         0.016971   
    233. D(H  14,C  12,C  11,C  17)   -118.6095         0.016971   
    234. D(H  14,C  12,C  11,H  16)     62.2044         0.016971   
    235. D(H  14,C  12,C  11,C   5)    169.2410         0.016971   
    236. D(C  19,C  12,C  11,H  16)   -178.9106         0.016971   
    237. D(H  13,C  12,C  11,C   5)     47.0671         0.016971   
    238. D(H  13,C  12,C  11,C   2)     35.4580         0.016971   
    239. D(H  13,C  12,C  11,C  17)    119.2166         0.016971   
    240. D(H  13,C  12,C  11,H  16)    -59.9695         0.016971   
    241. D(C  11,C  17,C   5,C   8)    172.1366         0.001500   
    242. D(C  11,C  17,C   5,C   2)    -78.3713         0.001500   
    243. D(C   8,C  17,C   2,C  11)   -137.9315         0.001500   
    244. D(C   8,C  17,C   2,H  10)   -160.9896         0.001500   
    245. D(C   5,C  17,C   2,H  10)   -122.0240         0.001500   
    246. D(C   5,C  17,C   2,C  11)    -98.9659         0.001500   
    247. D(C   5,C  17,C   2,C   0)    112.5017         0.001500   
    248. D(C  18,C  17,C   2,C  11)   -106.8194         0.001500   
    249. D(C  18,C  17,C   2,H  10)   -129.8775         0.001500   
    250. D(C   8,C  17,C   2,C   0)     73.5361         0.001500   
    251. D(H  15,C  17,C   2,C  11)    129.6015         0.001500   
    252. D(C   8,C  17,C   2,C   5)    -38.9656         0.001500   
    253. D(H  15,C  17,C   2,H  10)    106.5434         0.001500   
    254. D(C  11,C  17,C   2,C   5)     98.9659         0.001500   
    255. D(C  11,C  17,C   2,H  10)    -23.0581         0.001500   
    256. D(H  15,C  17,C   2,C   0)    -18.9308         0.001500   
    257. D(C  11,C  17,C   2,C   0)   -148.5323         0.001500   
    258. D(C  18,C  17,C   2,C   0)    104.6482         0.001500   
    259. D(C  18,C  17,C   2,C   5)     -7.8535         0.001500   
    260. D(C  11,C  17,C   5,H   9)     47.8721         0.001500   
    261. D(C   8,C  17,C  11,C   5)      3.3800         0.047406   
    262. D(C   8,C  17,C  11,C   2)     25.6474         0.047406   
    263. D(C   8,C  17,C  11,H  16)     95.6579         0.047406   
    264. D(C   8,C  17,C  11,C  12)    -83.5167         0.047406   
    265. D(C   5,C  17,C  11,C   2)     22.2675         0.047406   
    266. D(C   5,C  17,C  11,H  16)     92.2779         0.047406   
    267. D(C   2,C  17,C  11,C   5)    -22.2675         0.047406   
    268. D(C   2,C  17,C  11,H  16)     70.0104         0.047406   
    269. D(C   2,C  17,C  11,C  12)   -109.1641         0.047406   
    270. D(C  18,C  17,C  11,C   2)    108.9006         0.047406   
    271. D(C  18,C  17,C  11,H  16)    178.9110         0.047406   
    272. D(C  18,C  17,C  11,C  12)     -0.2635         0.047406   
    273. D(H  15,C  17,C  11,C   2)    -70.0463         0.047406   
    274. D(H  15,C  17,C  11,H  16)     -0.0359         0.047406   
    275. D(H  15,C  17,C  11,C  12)   -179.2104         0.047406   
    276. D(C   5,C  17,C   8,C  18)    114.1807         0.001500   
    277. D(C   5,C  17,C   8,H   4)    123.0055         0.001500   
    278. D(C   5,C  17,C   8,C   1)   -109.7788         0.001500   
    279. D(C   2,C  17,C   8,C  18)    150.3553         0.001500   
    280. D(H  15,C  17,C   2,C   5)   -131.4325         0.001500   
    281. D(C   2,C  17,C   8,H   4)    159.1802         0.001500   
    282. D(C   2,C  17,C   8,C   1)    -73.6041         0.001500   
    283. D(C  18,C  17,C   8,C   5)   -114.1807         0.001500   
    284. D(C  18,C  17,C   8,H   4)      8.8248         0.001500   
    285. D(C  18,C  17,C   8,C   1)    136.0406         0.001500   
    286. D(H  15,C  17,C   8,C  18)   -127.9918         0.001500   
    287. D(H  15,C  17,C   8,C   5)    117.8276         0.001500   
    288. D(H  15,C  17,C   8,H   4)   -119.1669         0.001500   
    289. D(H  15,C  17,C   8,C   1)      8.0488         0.001500   
    290. D(C  11,C  17,C   8,C  18)    105.8867         0.001500   
    291. D(C  11,C  17,C   8,C   5)     -8.2940         0.001500   
    292. D(C   2,C  17,C   8,C   5)     36.1747         0.001500   
    293. D(C  11,C  17,C   8,H   4)    114.7115         0.001500   
    294. D(C  11,C  17,C   8,C   1)   -118.0728         0.001500   
    295. D(C   8,C  17,C   5,C  18)    -63.1579         0.001500   
    296. D(C   8,C  17,C   5,C  11)   -172.1366         0.001500   
    297. D(C   8,C  17,C   5,H   9)   -124.2646         0.001500   
    298. D(C   8,C  17,C   5,C   2)    109.4921         0.001500   
    299. D(C   2,C  17,C   5,C  18)   -172.6500         0.001500   
    300. D(H  15,C  17,C  11,C   5)    -92.3138         0.047406   
    301. D(C   2,C  17,C   5,C  11)     78.3713         0.001500   
    302. D(C   2,C  17,C   5,H   9)    126.2434         0.001500   
    303. D(C   2,C  17,C   5,C   8)   -109.4921         0.001500   
    304. D(C  18,C  17,C  11,C   5)     86.6331         0.047406   
    305. D(C  18,C  17,C   5,C  11)   -108.9787         0.001500   
    306. D(C  18,C  17,C   5,H   9)    -61.1066         0.001500   
    307. D(C  18,C  17,C   5,C   8)     63.1579         0.001500   
    308. D(C   5,C  17,C  11,C  12)    -86.8966         0.047406   
    309. D(C  18,C  17,C   5,C   2)    172.6500         0.001500   
    310. D(H  15,C  17,C   5,C  18)   -124.9376         0.001500   
    311. D(H  15,C  17,C   5,C  11)    126.0837         0.001500   
    312. D(H  15,C  17,C   5,H   9)    173.9558         0.001500   
    313. D(H  15,C  17,C   5,C   8)    -61.7796         0.001500   
    314. D(H  15,C  17,C   5,C   2)     47.7124         0.001500   
    315. D(C  11,C  17,C   5,C  18)    108.9787         0.001500   
    316. D(C   8,C  18,C  17,C   2)    -18.8264         0.028944   
    317. D(C   8,C  18,C  17,H  15)     72.7176         0.028944   
    318. D(C   8,C  18,C  17,C  11)   -106.2466         0.028944   
    319. D(C   5,C  18,C  17,C   8)     21.8221         0.028944   
    320. D(C   5,C  18,C  17,C   2)      2.9957         0.028944   
    321. D(C   5,C  18,C  17,H  15)     94.5397         0.028944   
    322. D(C   5,C  18,C  17,C  11)    -84.4245         0.028944   
    323. D(H  20,C  18,C  17,C   5)    -94.8567         0.028944   
    324. D(H  20,C  18,C  17,C   2)    -91.8611         0.028944   
    325. D(H  20,C  18,C  17,H  15)     -0.3171         0.028944   
    326. D(C  19,C  18,C  17,C   8)    106.3815         0.028944   
    327. D(C  19,C  18,C  17,C   5)     84.5594         0.028944   
    328. D(C  19,C  18,C  17,C   2)     87.5550         0.028944   
    329. D(C  19,C  18,C  17,C  11)      0.1348         0.028944   
    330. D(C   5,C  18,C   8,C  17)    -61.9022         0.001500   
    331. D(C   5,C  18,C   8,H   4)    126.8147         0.001500   
    332. D(C   5,C  18,C   8,C   1)   -108.1349         0.001500   
    333. D(H  20,C  18,C   8,C  17)    127.8503         0.001500   
    334. D(H  20,C  18,C   8,C   5)   -170.2475         0.001500   
    335. D(H  20,C  18,C   8,H   4)    -43.4329         0.001500   
    336. D(H  20,C  18,C   8,C   1)     81.6176         0.001500   
    337. D(C  19,C  18,C   8,C  17)   -106.0038         0.001500   
    338. D(C  19,C  18,C   8,C   5)    -44.1016         0.001500   
    339. D(C  19,C  18,C   8,H   4)     82.7130         0.001500   
    340. D(C  19,C  18,C   8,C   1)   -152.2365         0.001500   
    341. D(C  17,C  18,C   8,C   5)     61.9022         0.001500   
    342. D(C  17,C  18,C   8,H   4)   -171.2832         0.001500   
    343. D(C  17,C  18,C   8,C   1)    -46.2327         0.001500   
    344. D(C   8,C  18,C   5,C  17)    111.7737         0.001500   
    345. D(C   8,C  18,C   5,C  11)    149.0514         0.001500   
    346. D(C   8,C  18,C   5,H   9)   -128.0453         0.001500   
    347. D(C   8,C  18,C   5,C   2)    103.9782         0.001500   
    348. D(C  19,C  18,C  17,H  15)    179.0991         0.028944   
    349. D(H  20,C  18,C   5,C  17)    121.8480         0.001500   
    350. D(H  20,C  18,C   5,C  11)    159.1258         0.001500   
    351. D(H  20,C  18,C   5,H   9)   -117.9709         0.001500   
    352. D(H  20,C  18,C  17,C  11)   -179.2813         0.028944   
    353. D(H  20,C  18,C   5,C   8)     10.0743         0.001500   
    354. D(H  20,C  18,C   5,C   2)    114.0525         0.001500   
    355. D(C  19,C  18,C   5,C  17)   -109.3875         0.001500   
    356. D(H  20,C  18,C  17,C   8)    -73.0347         0.028944   
    357. D(C  19,C  18,C   5,C  11)    -72.1098         0.001500   
    358. D(C  19,C  18,C   5,H   9)     10.7935         0.001500   
    359. D(C  19,C  18,C   5,C   8)    138.8388         0.001500   
    360. D(C  19,C  18,C   5,C   2)   -117.1830         0.001500   
    361. D(C  17,C  18,C   5,C  11)     37.2777         0.001500   
    362. D(C  17,C  18,C   5,H   9)    120.1810         0.001500   
    363. D(C  17,C  18,C   5,C   8)   -111.7737         0.001500   
    364. D(C   8,C  18,C  17,C   5)    -21.8221         0.028944   
    365. D(C  17,C  18,C   5,C   2)     -7.7955         0.001500   
    366. D(H  21,C  19,C  18,C   8)    -95.8669         0.041009   
    367. D(H  21,C  19,C  18,C   5)   -111.7085         0.041009   
    368. D(H  21,C  19,C  18,H  20)     -0.2223         0.041009   
    369. D(H  21,C  19,C  18,C  17)   -179.6283         0.041009   
    370. D(C  12,C  19,C  18,C   8)     83.8090         0.041009   
    371. D(C  12,C  19,C  18,C   5)     67.9674         0.041009   
    372. D(C  12,C  19,C  18,H  20)    179.4535         0.041009   
    373. D(C  12,C  19,C  18,C  17)      0.0476         0.041009   
    374. D(H  21,C  19,C  12,H  14)    -61.6397         0.015289   
    375. D(H  21,C  19,C  12,H  13)     60.5329         0.015289   
    376. D(H  21,C  19,C  12,C  11)    179.4893         0.015289   
    377. D(C  18,C  19,C  12,H  14)    118.6798         0.015289   
    378. D(C  18,C  19,C  12,H  13)   -119.1475         0.015289   
    379. D(C  18,C  19,C  12,C  11)     -0.1912         0.015289   
    -----------------------------------------------------------------

Number of atoms                         .... 22
Number of degrees of freedom            .... 379

         *************************************************************
         *                GEOMETRY OPTIMIZATION CYCLE   1            *
         *************************************************************
      -----------------------------------------------------------      
     |                   =====================                   |     
     |                           x T B                           |     
     |                   =====================                   |     
     |                         S. Grimme                         |     
     |          Mulliken Center for Theoretical Chemistry        |     
     |                    University of Bonn                     |     
      -----------------------------------------------------------      

   * xtb version 6.4.0 (d4b70c2) compiled by 'ehlert@majestix' on 2021-02-01

   xtb is free software: you can redistribute it and/or modify it under
   the terms of the GNU Lesser General Public License as published by
   the Free Software Foundation, either version 3 of the License, or
   (at your option) any later version.
   
   xtb is distributed in the hope that it will be useful,
   but WITHOUT ANY WARRANTY; without even the implied warranty of
   MERCHANTABILITY or FITNESS FOR A PARTICULAR PURPOSE.  See the
   GNU Lesser General Public License for more details.
   
   Cite this work as:
   * C. Bannwarth, E. Caldeweyher, S. Ehlert, A. Hansen, P. Pracht,
     J. Seibert, S. Spicher, S. Grimme, WIREs Comput. Mol. Sci., 2020,
     e01493. DOI: 10.1002/wcms.1493
   
   for GFN2-xTB:
   * C. Bannwarth, S. Ehlert and S. Grimme., J. Chem. Theory Comput., 2019,
     15, 1652-1671. DOI: 10.1021/acs.jctc.8b01176
   for GFN1-xTB:
   * S. Grimme, C. Bannwarth, P. Shushkov, J. Chem. Theory Comput., 2017,
     13, 1989-2009. DOI: 10.1021/acs.jctc.7b00118
   for GFN0-xTB:
   * P. Pracht, E. Caldeweyher, S. Ehlert, S. Grimme, ChemRxiv, 2019, preprint.
     DOI: 10.26434/chemrxiv.8326202.v1
   for GFN-FF:
   * S. Spicher and S. Grimme, Angew. Chem. Int. Ed., 2020, 59, 15665-15673.
     DOI: 10.1002/anie.202004239
   
   for DFT-D4:
   * E. Caldeweyher, C. Bannwarth and S. Grimme, J. Chem. Phys., 2017,
     147, 034112. DOI: 10.1063/1.4993215
   * E. Caldeweyher, S. Ehlert, A. Hansen, H. Neugebauer, S. Spicher,
     C. Bannwarth and S. Grimme, J. Chem. Phys., 2019, 150, 154122.
     DOI: 10.1063/1.5090222
   * E. Caldeweyher, J.-M. Mewes, S. Ehlert and S. Grimme, Phys. Chem. Chem. Phys.
     2020, 22, 8499-8512. DOI: 10.1039/D0CP00502A
   
   for sTDA-xTB:
   * S. Grimme and C. Bannwarth, J. Chem. Phys., 2016, 145, 054103.
     DOI: 10.1063/1.4959605
   
   in the mass-spec context:
   * V. Asgeirsson, C. Bauer and S. Grimme, Chem. Sci., 2017, 8, 4879.
     DOI: 10.1039/c7sc00601b
   * J. Koopman and S. Grimme, ACS Omega 2019, 4, 12, 15120-15133.
     DOI: 10.1021/acsomega.9b02011
   
   for metadynamics refer to:
   * S. Grimme, J. Chem. Theory Comput., 2019, 155, 2847-2862
     DOI: 10.1021/acs.jctc.9b00143
   
   with help from (in alphabetical order)
   P. Atkinson, C. Bannwarth, F. Bohle, G. Brandenburg, E. Caldeweyher
   M. Checinski, S. Dohm, S. Ehlert, S. Ehrlich, I. Gerasimov, J. Koopman
   C. Lavinge, S. Lehtola, F. März, M. Müller, F. Musil, H. Neugebauer
   J. Pisarek, P. Pracht, J. Seibert, P. Shushkov, S. Spicher, M. Stahn
   T. Strunk, J. Stückrath, T. Rose, and J. Unsleber
   
 * started run on 2022/05/09 at 10:29:33.326     

           -------------------------------------------------
          |                Calculation Setup                |
           -------------------------------------------------

          program call               : /opt/orca/otool_xtb opt+numfreq_XTB.xyz --grad -c 0 -u 0 -P 2 --namespace opt+numfreq
          calculation namespace      : opt+numfreq
          coordinate file            : opt+numfreq_XTB.xyz
          omp threads                :                     2
          number of atoms            :                    22
          number of electrons        :                    52
          charge                     :                     0
          spin                       :                   0.0
          first test random number   :      0.24637199982145

   ID    Z sym.   atoms
    1    6 C      1-3, 6, 9, 12, 13, 18-20
    2    1 H      4, 5, 7, 8, 10, 11, 14-17, 21, 22

molecular fragmentation (1/2 indicates fragments):
1111111111122222222222
# atoms in fragment 1/2:    11    11
 fragment masses (1/2) :       66.10       66.10
CMA distance (Bohr)    :   7.368
constraining FC (au)   :  0.0500
########################################################################
[WARNING] Please study the warnings concerning your input carefully
-1- prog_main_parseArguments: Process number higher than OMP_NUM_THREADS, I hope you know what you are doing.
########################################################################

           -------------------------------------------------
          |                 G F N 2 - x T B                 |
           -------------------------------------------------

        Reference                      10.1021/acs.jctc.8b01176
      * Hamiltonian:
        H0-scaling (s, p, d)           1.850000    2.230000    2.230000
        zeta-weighting                 0.500000
      * Dispersion:
        s8                             2.700000
        a1                             0.520000
        a2                             5.000000
        s9                             5.000000
      * Repulsion:
        kExp                           1.500000    1.000000
        rExp                           1.000000
      * Coulomb:
        alpha                          2.000000
        third order                    shell-resolved
        anisotropic                    true
        a3                             3.000000
        a5                             4.000000
        cn-shift                       1.200000
        cn-exp                         4.000000
        max-rad                        5.000000


          ...................................................
          :                      SETUP                      :
          :.................................................:
          :  # basis functions                  52          :
          :  # atomic orbitals                  52          :
          :  # shells                           32          :
          :  # electrons                        52          :
          :  max. iterations                   250          :
          :  Hamiltonian                  GFN2-xTB          :
          :  restarted?                      false          :
          :  GBSA solvation                  false          :
          :  PC potential                    false          :
          :  electronic temp.          300.0000000     K    :
          :  accuracy                    1.0000000          :
          :  -> integral cutoff          0.2500000E+02      :
          :  -> integral neglect         0.1000000E-07      :
          :  -> SCF convergence          0.1000000E-05 Eh   :
          :  -> wf. convergence          0.1000000E-03 e    :
          :  Broyden damping             0.4000000          :
          ...................................................

 iter      E             dE          RMSdq      gap      omega  full diag
   1    -27.8718120 -0.278718E+02  0.421E+00    3.33       0.0  T
   2    -27.8999388 -0.281269E-01  0.247E+00    3.35       1.0  T
   3    -27.8983638  0.157498E-02  0.610E-01    3.34       1.0  T
   4    -27.8981408  0.223050E-03  0.403E-01    3.33       1.0  T
   5    -27.9012745 -0.313368E-02  0.575E-02    3.32       1.0  T
   6    -27.9012866 -0.121885E-04  0.326E-02    3.32       1.0  T
   7    -27.9012826  0.408070E-05  0.197E-02    3.32       1.1  T
   8    -27.9012889 -0.637880E-05  0.187E-03    3.32      11.4  T
   9    -27.9012890 -0.527118E-08  0.671E-04    3.32      31.8  T
  10    -27.9012890 -0.336914E-08  0.275E-04    3.32      77.7  T

   *** convergence criteria satisfied after 10 iterations ***

         #    Occupation            Energy/Eh            Energy/eV
      -------------------------------------------------------------
         1        2.0000           -0.6332997             -17.2330
       ...           ...                  ...                  ...
        20        2.0000           -0.4391441             -11.9497
        21        2.0000           -0.4357357             -11.8570
        22        2.0000           -0.4350926             -11.8395
        23        2.0000           -0.4221619             -11.4876
        24        2.0000           -0.4141480             -11.2695
        25        2.0000           -0.3636890              -9.8965
        26        2.0000           -0.3597861              -9.7903 (HOMO)
        27                         -0.2376010              -6.4655 (LUMO)
        28                         -0.2344856              -6.3807
        29                         -0.1439216              -3.9163
        30                         -0.1416144              -3.8535
        31                          0.1057282               2.8770
       ...                                ...                  ...
        52                          0.6462905              17.5865
      -------------------------------------------------------------
                  HL-Gap            0.1221851 Eh            3.3248 eV
             Fermi-level           -0.2986935 Eh           -8.1279 eV

 SCC (total)                   0 d,  0 h,  0 min,  0.042 sec
 SCC setup                      ...        0 min,  0.001 sec (  1.439%)
 Dispersion                     ...        0 min,  0.002 sec (  3.856%)
 classical contributions        ...        0 min,  0.000 sec (  0.103%)
 integral evaluation            ...        0 min,  0.003 sec (  7.980%)
 iterations                     ...        0 min,  0.027 sec ( 64.753%)
 molecular gradient             ...        0 min,  0.009 sec ( 21.366%)
 printout                       ...        0 min,  0.000 sec (  0.389%)

         :::::::::::::::::::::::::::::::::::::::::::::::::::::
         ::                     SUMMARY                     ::
         :::::::::::::::::::::::::::::::::::::::::::::::::::::
         :: total energy             -27.426989822206 Eh    ::
         :: gradient norm              0.085329569267 Eh/a0 ::
         :: HOMO-LUMO gap              3.324826254525 eV    ::
         ::.................................................::
         :: SCC energy               -27.901288955682 Eh    ::
         :: -> isotropic ES            0.004176845639 Eh    ::
         :: -> anisotropic ES          0.007187684709 Eh    ::
         :: -> anisotropic XC          0.022665687475 Eh    ::
         :: -> dispersion             -0.017908689050 Eh    ::
         :: repulsion energy           0.474116927876 Eh    ::
         :: add. restraining           0.000000000000 Eh    ::
         :: total charge               0.000000000000 e     ::
         :::::::::::::::::::::::::::::::::::::::::::::::::::::

           -------------------------------------------------
          |                Property Printout                |
           -------------------------------------------------

    * Orbital Energies and Occupations

         #    Occupation            Energy/Eh            Energy/eV
      -------------------------------------------------------------
         1        2.0000           -0.6332997             -17.2330
       ...           ...                  ...                  ...
        14        2.0000           -0.4974807             -13.5371
        15        2.0000           -0.4457918             -12.1306
        16        2.0000           -0.4453656             -12.1190
        17        2.0000           -0.4447189             -12.1014
        18        2.0000           -0.4445165             -12.0959
        19        2.0000           -0.4397824             -11.9671
        20        2.0000           -0.4391441             -11.9497
        21        2.0000           -0.4357357             -11.8570
        22        2.0000           -0.4350926             -11.8395
        23        2.0000           -0.4221619             -11.4876
        24        2.0000           -0.4141480             -11.2695
        25        2.0000           -0.3636890              -9.8965
        26        2.0000           -0.3597861              -9.7903 (HOMO)
        27                         -0.2376010              -6.4655 (LUMO)
        28                         -0.2344856              -6.3807
        29                         -0.1439216              -3.9163
        30                         -0.1416144              -3.8535
        31                          0.1057282               2.8770
        32                          0.1075141               2.9256
        33                          0.1078347               2.9343
        34                          0.1094143               2.9773
        35                          0.1410215               3.8374
        36                          0.1504229               4.0932
        37                          0.1509190               4.1067
       ...                                ...                  ...
        52                          0.6462905              17.5865
      -------------------------------------------------------------
                  HL-Gap            0.1221851 Eh            3.3248 eV
             Fermi-level           -0.2986935 Eh           -8.1279 eV

     #   Z          covCN         q      C6AA      α(0)
     1   6 C        3.862    -0.059    21.592     6.608
     2   6 C        2.995    -0.046    29.132     8.854
     3   6 C        2.994    -0.046    29.128     8.853
     4   1 H        0.924     0.067     2.123     2.279
     5   1 H        0.925     0.025     2.665     2.553
     6   6 C        2.980    -0.037    28.919     8.821
     7   1 H        0.924     0.067     2.117     2.275
     8   1 H        0.925     0.023     2.691     2.565
     9   6 C        2.981    -0.037    28.917     8.821
    10   1 H        0.925     0.022     2.700     2.569
    11   1 H        0.925     0.022     2.702     2.570
    12   6 C        2.994    -0.046    29.125     8.853
    13   6 C        3.862    -0.059    21.595     6.609
    14   1 H        0.924     0.067     2.117     2.276
    15   1 H        0.924     0.067     2.123     2.278
    16   1 H        0.925     0.022     2.697     2.568
    17   1 H        0.925     0.022     2.703     2.571
    18   6 C        2.981    -0.037    28.913     8.820
    19   6 C        2.980    -0.038    28.930     8.823
    20   6 C        2.994    -0.046    29.141     8.855
    21   1 H        0.925     0.025     2.664     2.552
    22   1 H        0.925     0.023     2.690     2.565

 Mol. C6AA /au·bohr⁶  :       5080.058909
 Mol. C8AA /au·bohr⁸  :     120636.409231
 Mol. α(0) /au        :        113.538848


Wiberg/Mayer (AO) data.
largest (>0.10) Wiberg bond orders for each atom

 ---------------------------------------------------------------------------
     #   Z sym  total        # sym  WBO       # sym  WBO       # sym  WBO
 ---------------------------------------------------------------------------
     1   6 C    3.999 --     3 C    1.044     2 C    1.044     4 H    0.931
                             7 H    0.930
     2   6 C    3.986 --     9 C    1.773     1 C    1.044     8 H    0.974
                             3 C    0.147
     3   6 C    3.986 --     6 C    1.773     1 C    1.044    11 H    0.974
                             2 C    0.147
     4   1 H    0.996 --     1 C    0.931
     5   1 H    0.999 --     9 C    0.973
     6   6 C    3.989 --     3 C    1.773     9 C    1.174    10 H    0.973
     7   1 H    0.995 --     1 C    0.930
     8   1 H    0.999 --     2 C    0.974
     9   6 C    3.989 --     2 C    1.773     6 C    1.174     5 H    0.973
    10   1 H    1.000 --     6 C    0.973
    11   1 H    1.000 --     3 C    0.974
    12   6 C    3.986 --    18 C    1.774    13 C    1.044    17 H    0.974
                            20 C    0.147
    13   6 C    3.999 --    12 C    1.044    20 C    1.044    15 H    0.931
                            14 H    0.930
    14   1 H    0.995 --    13 C    0.930
    15   1 H    0.996 --    13 C    0.931
    16   1 H    0.999 --    18 C    0.973
    17   1 H    1.000 --    12 C    0.974
    18   6 C    3.989 --    12 C    1.774    19 C    1.173    16 H    0.973
    19   6 C    3.989 --    20 C    1.773    18 C    1.173    21 H    0.973
    20   6 C    3.986 --    19 C    1.773    13 C    1.044    22 H    0.974
                            12 C    0.147
    21   1 H    0.999 --    19 C    0.973
    22   1 H    0.999 --    20 C    0.974
 ---------------------------------------------------------------------------

Topologies differ in total number of bonds
Writing topology from bond orders to xtbtopo.mol

molecular dipole:
                 x           y           z       tot (Debye)
 q only:        0.282       0.126       0.049
   full:        0.316       0.140       0.053       0.887
molecular quadrupole (traceless):
                xx          xy          yy          xz          yz          zz
 q only:       -2.341      -2.359       4.326       1.457      -0.840      -1.985
  q+dip:       -0.446      -3.006       7.319       1.701       0.538      -6.874
   full:       -1.832      -2.746       5.675       1.634      -0.358      -3.843


           -------------------------------------------------
          | TOTAL ENERGY              -27.426989822206 Eh   |
          | GRADIENT NORM               0.085329569267 Eh/α |
          | HOMO-LUMO GAP               3.324826254525 eV   |
           -------------------------------------------------

------------------------------------------------------------------------
 * finished run on 2022/05/09 at 10:29:33.434     
------------------------------------------------------------------------
 total:
 * wall-time:     0 d,  0 h,  0 min,  0.108 sec
 *  cpu-time:     0 d,  0 h,  0 min,  0.129 sec
 * ratio c/w:     1.194 speedup
 SCF:
 * wall-time:     0 d,  0 h,  0 min,  0.042 sec
 *  cpu-time:     0 d,  0 h,  0 min,  0.051 sec
 * ratio c/w:     1.223 speedup


-------------------------   --------------------
FINAL SINGLE POINT ENERGY       -27.426989822210
-------------------------   --------------------

------------------------------------------------------------------------------
                         ORCA GEOMETRY RELAXATION STEP
------------------------------------------------------------------------------

Reading the OPT-File                    .... done
Getting information on internals        .... done
Copying old internal coords+grads       .... done
Making the new internal coordinates     .... (new redundants).... done
Validating the new internal coordinates .... (new redundants).... done
Calculating the B-matrix                .... done
Calculating the G,G- and P matrices     .... done
Transforming gradient to internals      .... done
Projecting the internal gradient        .... done
Number of atoms                         ....  22
Number of internal coordinates          .... 379
Current Energy                          ....   -27.426989822 Eh
Current gradient norm                   ....     0.085329569 Eh/bohr
Maximum allowed component of the step   ....  0.300
Current trust radius                    ....  0.300
Evaluating the initial hessian          ....  (Almloef) done
Projecting the Hessian                  .... done
Forming the augmented Hessian           .... done
Diagonalizing the augmented Hessian     .... done
Last element of RFO vector              ....  0.987601521
Lowest eigenvalues of augmented Hessian:
 -0.008137979  0.000667731  0.005038025  0.007294885  0.008949357
Length of the computed step             ....  0.158952412
The final length of the internal step   ....  0.158952412
Converting the step to cartesian space:
 Initial RMS(Int)=    0.0081648370
Transforming coordinates:
 Iter   0:  RMS(Cart)=    0.0196009298 RMS(Int)=    0.0081857140
 Iter   1:  RMS(Cart)=    0.0000885823 RMS(Int)=    0.0000666394
 Iter   2:  RMS(Cart)=    0.0000012727 RMS(Int)=    0.0000008303
 Iter   3:  RMS(Cart)=    0.0000000162 RMS(Int)=    0.0000000109
done
Storing new coordinates                 .... done

                                .--------------------.
          ----------------------|Geometry convergence|-------------------------
          Item                value                   Tolerance       Converged
          ---------------------------------------------------------------------
          RMS gradient        0.0031450811            0.0001000000      NO
          MAX gradient        0.0281905761            0.0003000000      NO
          RMS step            0.0081648370            0.0020000000      NO
          MAX step            0.0477744507            0.0040000000      NO
          ........................................................
          Max(Bonds)      0.0253      Max(Angles)    0.65
          Max(Dihed)        0.97      Max(Improp)    0.00
          ---------------------------------------------------------------------

The optimization has not yet converged - more geometry cycles are needed


    ---------------------------------------------------------------------------
                         Redundant Internal Coordinates
                            (Angstroem and degrees)

        Definition                    Value    dE/dq     Step     New-Value
    ----------------------------------------------------------------------------
     1. B(C   1,C   0)                1.4936  0.003529 -0.0037    1.4899   
     2. B(C   2,C   0)                1.4936  0.006647 -0.0046    1.4890   
     3. B(H   3,C   0)                1.0923  0.001048 -0.0015    1.0908   
     4. B(C   5,C   2)                1.3733  0.022160 -0.0253    1.3480   
     5. B(H   6,C   0)                1.0922  0.001543 -0.0019    1.0903   
     6. B(H   7,C   1)                1.0855  0.006951 -0.0098    1.0757   
     7. B(C   8,C   5)                1.4344 -0.001811  0.0039    1.4382   
     8. B(C   8,H   4)                1.0858  0.007558 -0.0108    1.0750   
     9. B(C   8,C   1)                1.3723  0.027868 -0.0250    1.3473   
    10. B(H   9,C   5)                1.0852  0.006292 -0.0104    1.0747   
    11. B(H  10,C   2)                1.0853  0.007004 -0.0099    1.0754   
    12. B(C  11,C   5)                3.5530  0.002425 -0.0070    3.5460   
    13. B(C  11,C   2)                3.6381  0.003116 -0.0112    3.6269   
    14. B(C  11,H   9)                3.6050  0.001422 -0.0042    3.6008   
    15. B(C  12,C  11)                1.4937  0.006660 -0.0046    1.4891   
    16. B(C  12,H   9)                3.5851  0.000004 -0.0034    3.5817   
    17. B(H  13,C  12)                1.0925  0.001490 -0.0022    1.0903   
    18. B(H  13,H   9)                3.0269 -0.001581 -0.0002    3.0268   
    19. B(H  13,C   5)                3.6230  0.004056 -0.0095    3.6135   
    20. B(H  14,C  12)                1.0923  0.001045 -0.0015    1.0908   
    21. B(H  15,C   2)                3.5535  0.000633 -0.0026    3.5510   
    22. B(H  15,C   1)                3.3513 -0.002531  0.0056    3.3570   
    23. B(H  15,C   0)                3.3838 -0.000523 -0.0015    3.3823   
    24. B(H  15,H   6)                2.8386 -0.001262  0.0013    2.8399   
    25. B(H  15,C   8)                3.5241  0.001183 -0.0022    3.5219   
    26. B(H  15,C   5)                3.6452  0.002725 -0.0073    3.6378   
    27. B(H  16,C  11)                1.0850  0.006387 -0.0097    1.0754   
    28. B(H  16,C   2)                3.6474  0.001370 -0.0063    3.6411   
    29. B(H  16,H  10)                3.4898 -0.002498 -0.0001    3.4897   
    30. B(C  17,C   2)                3.5861  0.002849 -0.0068    3.5793   
    31. B(C  17,C   8)                3.4830 -0.001934  0.0011    3.4840   
    32. B(C  17,H   6)                3.5100  0.004358 -0.0088    3.5012   
    33. B(C  17,H  15)                1.0853  0.004952 -0.0106    1.0747   
    34. B(C  17,C   5)                3.3927 -0.001082 -0.0025    3.3901   
    35. B(C  17,C  11)                1.3724  0.021522 -0.0247    1.3477   
    36. B(C  18,H   4)                3.4564  0.000183 -0.0004    3.4560   
    37. B(C  18,C   8)                3.4770 -0.001958  0.0017    3.4787   
    38. B(C  18,C  17)                1.4349 -0.001622  0.0036    1.4385   
    39. B(C  18,C   5)                3.6453 -0.002151  0.0018    3.6471   
    40. B(C  19,H   9)                3.6698 -0.001421  0.0039    3.6737   
    41. B(C  19,C  18)                1.3725  0.028191 -0.0251    1.3473   
    42. B(C  19,C  12)                1.4938  0.003907 -0.0040    1.4899   
    43. B(H  20,H   4)                3.2567 -0.000509  0.0037    3.2604   
    44. B(H  20,C  18)                1.0852  0.007189 -0.0103    1.0749   
    45. B(H  20,C   8)                3.5175  0.000388 -0.0010    3.5165   
    46. B(H  21,C  19)                1.0851  0.006739 -0.0095    1.0756   
    47. A(C   1,C   0,C   2)          101.71  0.001613    0.58    102.29   
    48. A(C   2,C   0,H   6)          111.48 -0.001663   -0.00    111.47   
    49. A(C   1,C   0,H   3)          111.48 -0.000638    0.02    111.50   
    50. A(H   3,C   0,H   6)          109.08  0.002404   -0.63    108.45   
    51. A(C   1,C   0,H   6)          111.51 -0.000886    0.03    111.54   
    52. A(C   2,C   0,H   3)          111.46 -0.001030    0.09    111.54   
    53. A(C   0,C   1,C   8)          110.40 -0.000756   -0.65    109.75   
    54. A(H   7,C   1,C   8)          125.40 -0.001316    0.59    125.98   
    55. A(C   0,C   1,H   7)          124.20  0.002064    0.06    124.26   
    56. A(C   5,C   2,H  10)          125.35  0.000079    0.51    125.86   
    57. A(C   0,C   2,C  17)           87.76  0.000062   -0.13     87.63   
    58. A(C  11,C   2,C  17)           21.89  0.003043   -0.34     21.55   
    59. A(H  10,C   2,C  17)          108.28  0.001761   -0.04    108.23   
    60. A(H  10,C   2,C  11)           88.01 -0.001036    0.29     88.30   
    61. A(C   5,C   2,C  17)           70.82 -0.001926    0.22     71.04   
    62. A(C   0,C   2,C   5)          110.39  0.000571   -0.61    109.78   
    63. A(C   0,C   2,H  10)          124.25 -0.000651    0.10    124.36   
    64. A(C   5,C   2,C  11)           75.52 -0.001305    0.28     75.80   
    65. A(C   0,C   2,C  11)          106.35  0.002614   -0.38    105.97   
    66. A(C   2,C   5,H   9)          126.28 -0.000133   -0.16    126.12   
    67. A(C   8,C   5,C  17)           81.51 -0.000176    0.10     81.61   
    68. A(C   2,C   5,C  17)           86.70 -0.001400    0.17     86.87   
    69. A(C   2,C   5,C  11)           82.50 -0.001859    0.07     82.57   
    70. A(C   2,C   5,C   8)          108.72 -0.000516    0.34    109.06   
    71. A(H   9,C   5,C  18)           87.83  0.001271   -0.09     87.75   
    72. A(H   9,C   5,C  11)           84.01 -0.001064    0.25     84.25   
    73. A(C   8,C   5,C  11)          103.94  0.003075   -0.27    103.67   
    74. A(C  17,C   5,C  18)           23.17 -0.000125    0.05     23.22   
    75. A(H   9,C   5,C  17)           99.38  0.001267   -0.08     99.29   
    76. A(C  11,C   5,C  18)           36.94  0.002423   -0.18     36.76   
    77. A(C   8,C   5,C  18)           71.86  0.000065   -0.01     71.85   
    78. A(C   2,C   5,C  18)          109.68 -0.001509    0.22    109.90   
    79. A(C  11,C   5,C  17)           22.64  0.003266   -0.38     22.26   
    80. A(C   8,C   5,H   9)          124.99  0.000648   -0.18    124.81   
    81. A(H   4,C   8,C   5)          124.94 -0.000520   -0.12    124.82   
    82. A(C   1,C   8,C   5)          108.77 -0.000909    0.34    109.11   
    83. A(C   1,C   8,H   4)          126.28  0.001424   -0.21    126.07   
    84. A(C  17,C   8,C  18)           23.79 -0.000127    0.05     23.85   
    85. A(H   4,C   8,C  18)           79.92  0.000493   -0.03     79.89   
    86. A(C   1,C   8,C  18)          106.03 -0.001221    0.12    106.15   
    87. A(C   5,C   8,C  18)           85.06  0.000083   -0.04     85.02   
    88. A(C   5,C   8,C  17)           74.45  0.000355   -0.16     74.29   
    89. A(H   4,C   8,C  17)          103.44  0.000370    0.04    103.49   
    90. A(C   1,C   8,C  17)           89.11 -0.001507    0.25     89.36   
    91. A(C   2,C  11,C   5)           21.98  0.003164   -0.35     21.63   
    92. A(C   5,C  11,C  17)           72.10 -0.001973    0.25     72.35   
    93. A(C   5,C  11,H  16)          102.05  0.001599   -0.02    102.03   
    94. A(C   5,C  11,C  12)           93.37 -0.000073   -0.13     93.24   
    95. A(H  16,C  11,C  17)          125.38 -0.000240    0.52    125.90   
    96. A(C  12,C  11,C  17)          110.39  0.000759   -0.62    109.77   
    97. A(C  12,C  11,H  16)          124.22 -0.000524    0.11    124.33   
    98. A(C   2,C  11,H  16)           81.92 -0.001290    0.31     82.24   
    99. A(C   2,C  11,C  12)          112.24  0.002591   -0.39    111.85   
   100. A(C   2,C  11,C  17)           76.93 -0.001303    0.31     77.23   
   101. A(H  14,C  12,C  19)          111.47 -0.000526    0.02    111.49   
   102. A(H  13,C  12,C  19)          111.49 -0.000727    0.03    111.52   
   103. A(C  11,C  12,C  19)          101.71  0.001466    0.59    102.30   
   104. A(H  13,C  12,H  14)          109.09  0.002200   -0.63    108.46   
   105. A(C  11,C  12,H  14)          111.45 -0.000959    0.09    111.54   
   106. A(C  11,C  12,H  13)          111.51 -0.001637   -0.00    111.51   
   107. A(C   2,C  17,C   5)           22.48  0.003326   -0.39     22.09   
   108. A(C   5,C  17,C  18)           88.35 -0.000222    0.12     88.47   
   109. A(C   5,C  17,H  15)           94.67  0.001003   -0.05     94.61   
   110. A(C   5,C  17,C  11)           85.26 -0.001293    0.13     85.38   
   111. A(H  15,C  17,C  18)          124.95  0.000526   -0.18    124.77   
   112. A(C  11,C  17,C  18)          108.76 -0.000273    0.32    109.08   
   113. A(C  11,C  17,H  15)          126.28 -0.000259   -0.14    126.14   
   114. A(C   2,C  17,C  18)          110.63  0.003085   -0.26    110.37   
   115. A(C   2,C  17,H  15)           79.56 -0.001322    0.28     79.84   
   116. A(C   2,C  17,C  11)           81.19 -0.001740    0.03     81.22   
   117. A(C   5,C  17,C   8)           24.04 -0.000179    0.07     24.10   
   118. A(C   2,C  17,C   8)           37.63  0.002380   -0.17     37.46   
   119. A(C   8,C  17,C  18)           77.87  0.000053    0.00     77.87   
   120. A(C   8,C  17,H  15)           83.24  0.001031   -0.06     83.18   
   121. A(C   8,C  17,C  11)          109.06 -0.001448    0.20    109.26   
   122. A(C  17,C  18,C  19)          108.74 -0.001171    0.36    109.09   
   123. A(C   5,C  18,C   8)           23.08 -0.000149    0.05     23.13   
   124. A(C   8,C  18,H  20)           83.20  0.000435   -0.04     83.16   
   125. A(C   8,C  18,C  19)          109.06 -0.001543    0.14    109.20   
   126. A(C   8,C  18,C  17)           78.34  0.000075   -0.05     78.29   
   127. A(C   5,C  18,H  20)          105.94  0.000290    0.04    105.98   
   128. A(C   5,C  18,C  19)           91.96 -0.001800    0.26     92.22   
   129. A(C   5,C  18,C  17)           68.48  0.000348   -0.17     68.31   
   130. A(C  19,C  18,H  20)          126.32  0.001611   -0.23    126.09   
   131. A(C  17,C  18,H  20)          124.94 -0.000447   -0.13    124.81   
   132. A(C  18,C  19,H  21)          125.39 -0.001332    0.59    125.97   
   133. A(C  12,C  19,H  21)          124.21  0.002104    0.06    124.27   
   134. A(C  12,C  19,C  18)          110.40 -0.000777   -0.64    109.76   
   135. D(C   8,C   1,C   0,H   6)   -119.09  0.002360   -0.53   -119.61   
   136. D(H   7,C   1,C   0,C   2)    179.43 -0.000250    0.07    179.50   
   137. D(H   7,C   1,C   0,H   3)    -61.68 -0.000831    0.51    -61.18   
   138. D(C   8,C   1,C   0,C   2)     -0.16  0.000927   -0.19     -0.35   
   139. D(C   8,C   1,C   0,H   3)    118.72  0.000346    0.25    118.97   
   140. D(H   7,C   1,C   0,H   6)     60.51  0.001183   -0.27     60.24   
   141. D(H  10,C   2,C   0,C   1)   -179.08 -0.000684   -0.01   -179.09   
   142. D(H  10,C   2,C   0,H   3)     62.02 -0.000381   -0.40     61.62   
   143. D(C  17,C   2,C   0,H   6)     50.55  0.000506    0.23     50.78   
   144. D(C  11,C   2,C   0,H   6)     38.85 -0.001224    0.48     39.33   
   145. D(C  17,C   2,C   0,C   1)    -68.40  0.001385   -0.14    -68.53   
   146. D(C  11,C   2,C   0,H   3)    161.00 -0.000043   -0.27    160.73   
   147. D(H  10,C   2,C   0,H   6)    -60.13 -0.001563    0.35    -59.78   
   148. D(C  17,C   2,C   0,H   3)    172.70  0.001687   -0.52    172.17   
   149. D(C   5,C   2,C   0,C   1)      0.18 -0.000782    0.16      0.34   
   150. D(C   5,C   2,C   0,H   6)    119.13 -0.001662    0.52    119.65   
   151. D(C  11,C   2,C   0,C   1)    -80.10 -0.000345    0.12    -79.98   
   152. D(C   5,C   2,C   0,H   3)   -118.73 -0.000480   -0.23   -118.95   
   153. D(C  11,C   5,C   2,C  17)    -22.35 -0.003315    0.41    -21.94   
   154. D(H   9,C   5,C   2,C  17)    -99.22 -0.000537   -0.01    -99.22   
   155. D(C   8,C   5,C   2,C   0)     -0.13  0.000390   -0.08     -0.21   
   156. D(C   8,C   5,C   2,C  17)     79.89 -0.000622    0.12     80.01   
   157. D(C  18,C   5,C   2,C   0)    -76.95  0.000866   -0.23    -77.18   
   158. D(C  11,C   5,C   2,H  10)     76.88 -0.002409    0.38     77.25   
   159. D(C  18,C   5,C   2,C  11)     25.42  0.003168   -0.43     24.98   
   160. D(C  17,C   5,C   2,H  10)     99.23  0.000905   -0.03     99.20   
   161. D(C  11,C   5,C   2,C   0)   -102.37 -0.002302    0.21   -102.16   
   162. D(H   9,C   5,C   2,C  11)    -76.86  0.002777   -0.42    -77.28   
   163. D(C  17,C   5,C   2,C   0)    -80.02  0.001012   -0.20    -80.22   
   164. D(C  18,C   5,C   2,H  10)    102.29  0.000759   -0.06    102.24   
   165. D(H   9,C   5,C   2,H  10)      0.01  0.000368   -0.04     -0.03   
   166. D(C   8,C   5,C   2,C  11)    102.24  0.002693   -0.29    101.95   
   167. D(C  17,C   5,C   2,C  11)     22.35  0.003315   -0.41     21.94   
   168. D(C   8,C   5,C   2,H  10)    179.11  0.000283    0.09    179.20   
   169. D(H   9,C   5,C   2,C   0)   -179.23  0.000475   -0.21   -179.44   
   170. D(C  18,C   5,C   2,C  17)      3.06 -0.000146   -0.02      3.04   
   171. D(C  18,C   8,C   5,C  11)    -18.57  0.000364   -0.09    -18.66   
   172. D(C  17,C   8,C   5,C  18)     21.68 -0.000024    0.00     21.69   
   173. D(C  17,C   8,C   5,C  11)      3.11  0.000340   -0.09      3.02   
   174. D(C   1,C   8,C   5,C  11)     86.70 -0.000901    0.02     86.72   
   175. D(C   1,C   8,C   5,H   9)    179.14  0.000135    0.08    179.22   
   176. D(C   1,C   8,C   5,C  18)    105.27 -0.001265    0.11    105.39   
   177. D(H   4,C   8,C   5,C  17)    -95.74 -0.000806    0.03    -95.71   
   178. D(H   4,C   8,C   5,C  18)    -74.06 -0.000831    0.03    -74.02   
   179. D(H   4,C   8,C   5,C   2)   -179.31  0.000661   -0.12   -179.43   
   180. D(C  18,C   8,C   5,H   9)     73.86  0.001399   -0.03     73.84   
   181. D(C   1,C   8,C   5,C   2)      0.02  0.000227   -0.05     -0.02   
   182. D(C   1,C   8,C   5,C  17)     83.59 -0.001241    0.11     83.70   
   183. D(C  18,C   8,C   5,C  17)    -21.68  0.000024   -0.00    -21.69   
   184. D(H   4,C   8,C   5,C  11)    -92.63 -0.000466   -0.06    -92.68   
   185. D(C  18,C   8,C   1,C   0)     90.27 -0.001342    0.24     90.52   
   186. D(C  17,C   8,C   1,C   0)     73.33 -0.000812    0.03     73.36   
   187. D(H   4,C   8,C   5,H   9)     -0.19  0.000569    0.01     -0.19   
   188. D(H   4,C   8,C   1,H   7)     -0.17 -0.000035   -0.03     -0.20   
   189. D(C   5,C   8,C   1,C   0)      0.10 -0.000755    0.15      0.25   
   190. D(H   4,C   8,C   1,C   0)    179.42 -0.001213    0.23    179.65   
   191. D(C   5,C   8,C   1,H   7)   -179.49  0.000423   -0.11   -179.60   
   192. D(C  18,C   8,C   5,C   2)   -105.25  0.001491   -0.16   -105.41   
   193. D(C  17,C   8,C   1,H   7)   -106.26  0.000366   -0.23   -106.49   
   194. D(C  17,C   8,C   5,H   9)     95.54  0.001375   -0.02     95.52   
   195. D(C  17,C   8,C   5,C   2)    -83.57  0.001467   -0.15    -83.72   
   196. D(C  18,C   8,C   1,H   7)    -89.31 -0.000164   -0.02    -89.33   
   197. D(C   2,C  11,C   5,C  18)   -137.75  0.003620   -0.68   -138.43   
   198. D(C   2,C  11,C   5,C  17)    -99.50  0.000898   -0.48    -99.97   
   199. D(C   2,C  11,C   5,H   9)    127.87  0.000564   -0.24    127.63   
   200. D(C   2,C  11,C   5,C   8)   -107.51  0.001123   -0.38   -107.89   
   201. D(C  17,C  11,C   5,C   8)     -8.01  0.000226    0.09     -7.92   
   202. D(H  16,C  11,C   2,C   0)    -96.37 -0.000256   -0.58    -96.95   
   203. D(C  12,C  11,C   2,C   0)    139.88  0.000559   -0.78    139.10   
   204. D(C  17,C  11,C   2,C   0)     32.93  0.000505   -0.26     32.67   
   205. D(H  16,C  11,C   5,H   9)    103.78  0.000395   -0.32    103.46   
   206. D(C  12,C  11,C   5,C  17)    110.35  0.000934   -0.63    109.72   
   207. D(H  16,C  11,C   5,C  18)   -161.84  0.003451   -0.76   -162.60   
   208. D(C  12,C  11,C   5,C   2)   -150.15  0.000037   -0.15   -150.30   
   209. D(C  12,C  11,C   5,C   8)    102.34  0.001160   -0.53    101.80   
   210. D(C   5,C  11,C   2,C  17)     74.48 -0.000664   -0.25     74.23   
   211. D(C  12,C  11,C   5,C  18)     72.10  0.003657   -0.83     71.27   
   212. D(C   5,C  11,C   2,H  10)   -127.37 -0.000762   -0.37   -127.74   
   213. D(C   5,C  11,C   2,C   0)    107.41 -0.000159   -0.51    106.90   
   214. D(C  17,C  11,C   2,H  10)    158.15 -0.000098   -0.12    158.04   
   215. D(C  17,C  11,C   2,C   5)    -74.48  0.000664    0.25    -74.23   
   216. D(H  16,C  11,C   5,C   2)    -24.09 -0.000169   -0.08    -24.17   
   217. D(C  12,C  11,C   5,H   9)    -22.28  0.000600   -0.39    -22.67   
   218. D(H  16,C  11,C   5,C  17)   -123.59  0.000729   -0.56   -124.15   
   219. D(H  16,C  11,C   2,C  17)   -129.30 -0.000761   -0.32   -129.62   
   220. D(H  16,C  11,C   2,H  10)     28.85 -0.000859   -0.43     28.42   
   221. D(H  16,C  11,C   2,C   5)    156.22 -0.000097   -0.06    156.16   
   222. D(C  17,C  11,C   5,C   2)     99.50 -0.000898    0.48     99.97   
   223. D(C  17,C  11,C   5,C  18)    -38.25  0.002723   -0.21    -38.45   
   224. D(C  12,C  11,C   2,C  17)    106.95  0.000054   -0.52    106.43   
   225. D(C  12,C  11,C   2,H  10)    -94.90 -0.000044   -0.64    -95.54   
   226. D(C  12,C  11,C   2,C   5)     32.47  0.000718   -0.26     32.20   
   227. D(C  17,C  11,C   5,H   9)   -132.63 -0.000334    0.23   -132.39   
   228. D(H  16,C  11,C   5,C   8)   -131.60  0.000954   -0.46   -132.07   
   229. D(C  19,C  12,C  11,C  17)      0.28 -0.000701    0.12      0.40   
   230. D(C  19,C  12,C  11,C   2)    -83.48 -0.000364    0.13    -83.35   
   231. D(H  14,C  12,C  11,C   2)    157.63 -0.000141   -0.26    157.37   
   232. D(C  19,C  12,C  11,C   5)    -71.87  0.001478   -0.13    -72.01   
   233. D(H  14,C  12,C  11,C  17)   -118.61 -0.000479   -0.27   -118.88   
   234. D(H  14,C  12,C  11,H  16)     62.20 -0.000087   -0.43     61.77   
   235. D(H  14,C  12,C  11,C   5)    169.24  0.001700   -0.52    168.72   
   236. D(C  19,C  12,C  11,H  16)   -178.91 -0.000309   -0.05   -178.96   
   237. D(H  13,C  12,C  11,C   5)     47.07  0.000713    0.23     47.29   
   238. D(H  13,C  12,C  11,C   2)     35.46 -0.001129    0.49     35.95   
   239. D(H  13,C  12,C  11,C  17)    119.22 -0.001466    0.48    119.70   
   240. D(H  13,C  12,C  11,H  16)    -59.97 -0.001074    0.32    -59.65   
   241. D(C  11,C  17,C   5,C   8)    172.14  0.000323    0.08    172.22   
   242. D(C  11,C  17,C   5,C   2)    -78.37  0.000068    0.39    -77.98   
   243. D(C   8,C  17,C   2,C  11)   -137.93  0.003689   -0.69   -138.62   
   244. D(C   8,C  17,C   2,H  10)   -160.99  0.003353   -0.81   -161.80   
   245. D(C   5,C  17,C   2,H  10)   -122.02  0.000606   -0.59   -122.62   
   246. D(C   5,C  17,C   2,C  11)    -98.97  0.000942   -0.47    -99.44   
   247. D(C   5,C  17,C   2,C   0)    112.50  0.000948   -0.65    111.86   
   248. D(C  18,C  17,C   2,C  11)   -106.82  0.001044   -0.37   -107.19   
   249. D(C  18,C  17,C   2,H  10)   -129.88  0.000708   -0.49   -130.37   
   250. D(C   8,C  17,C   2,C   0)     73.54  0.003696   -0.86     72.67   
   251. D(H  15,C  17,C   2,C  11)    129.60  0.000828   -0.26    129.34   
   252. D(C   8,C  17,C   2,C   5)    -38.97  0.002748   -0.22    -39.18   
   253. D(H  15,C  17,C   2,H  10)    106.54  0.000492   -0.38    106.16   
   254. D(C  11,C  17,C   2,C   5)     98.97 -0.000942    0.47     99.44   
   255. D(C  11,C  17,C   2,H  10)    -23.06 -0.000336   -0.12    -23.18   
   256. D(H  15,C  17,C   2,C   0)    -18.93  0.000835   -0.43    -19.36   
   257. D(C  11,C  17,C   2,C   0)   -148.53  0.000007   -0.17   -148.71   
   258. D(C  18,C  17,C   2,C   0)    104.65  0.001051   -0.54    104.11   
   259. D(C  18,C  17,C   2,C   5)     -7.85  0.000102    0.10     -7.75   
   260. D(C  11,C  17,C   5,H   9)     47.87 -0.000232    0.25     48.12   
   261. D(C   8,C  17,C  11,C   5)      3.38 -0.000191   -0.02      3.36   
   262. D(C   8,C  17,C  11,C   2)     25.65  0.003205   -0.44     25.21   
   263. D(C   8,C  17,C  11,H  16)     95.66  0.000519   -0.03     95.63   
   264. D(C   8,C  17,C  11,C  12)    -83.52  0.000920   -0.19    -83.71   
   265. D(C   5,C  17,C  11,C   2)     22.27  0.003396   -0.42     21.85   
   266. D(C   5,C  17,C  11,H  16)     92.28  0.000711   -0.00     92.28   
   267. D(C   2,C  17,C  11,C   5)    -22.27 -0.003396    0.42    -21.85   
   268. D(C   2,C  17,C  11,H  16)     70.01 -0.002685    0.42     70.43   
   269. D(C   2,C  17,C  11,C  12)   -109.16 -0.002285    0.25   -108.91   
   270. D(C  18,C  17,C  11,C   2)    108.90  0.002742   -0.28    108.62   
   271. D(C  18,C  17,C  11,H  16)    178.91  0.000057    0.13    179.04   
   272. D(C  18,C  17,C  11,C  12)     -0.26  0.000458   -0.03     -0.29   
   273. D(H  15,C  17,C  11,C   2)    -70.05  0.003082   -0.45    -70.50   
   274. D(H  15,C  17,C  11,H  16)     -0.04  0.000396   -0.04     -0.07   
   275. D(H  15,C  17,C  11,C  12)   -179.21  0.000797   -0.20   -179.41   
   276. D(C   5,C  17,C   8,C  18)    114.18 -0.000524    0.24    114.42   
   277. D(C   5,C  17,C   8,H   4)    123.01 -0.000571   -0.15    122.85   
   278. D(C   5,C  17,C   8,C   1)   -109.78  0.000537   -0.30   -110.08   
   279. D(C   2,C  17,C   8,C  18)    150.36  0.003162   -0.36    150.00   
   280. D(H  15,C  17,C   2,C   5)   -131.43 -0.000113    0.21   -131.22   
   281. D(C   2,C  17,C   8,H   4)    159.18  0.003116   -0.75    158.43   
   282. D(C   2,C  17,C   8,C   1)    -73.60  0.004223   -0.90    -74.50   
   283. D(C  18,C  17,C   8,C   5)   -114.18  0.000524   -0.24   -114.42   
   284. D(C  18,C  17,C   8,H   4)      8.82 -0.000047   -0.40      8.43   
   285. D(C  18,C  17,C   8,C   1)    136.04  0.001061   -0.54    135.50   
   286. D(H  15,C  17,C   8,C  18)   -127.99 -0.000171    0.17   -127.82   
   287. D(H  15,C  17,C   8,C   5)    117.83  0.000353   -0.07    117.76   
   288. D(H  15,C  17,C   8,H   4)   -119.17 -0.000217   -0.23   -119.39   
   289. D(H  15,C  17,C   8,C   1)      8.05  0.000890   -0.37      7.68   
   290. D(C  11,C  17,C   8,C  18)    105.89 -0.000094    0.32    106.20   
   291. D(C  11,C  17,C   8,C   5)     -8.29  0.000430    0.08     -8.22   
   292. D(C   2,C  17,C   8,C   5)     36.17  0.003686   -0.60     35.58   
   293. D(C  11,C  17,C   8,H   4)    114.71 -0.000141   -0.08    114.63   
   294. D(C  11,C  17,C   8,C   1)   -118.07  0.000966   -0.22   -118.29   
   295. D(C   8,C  17,C   5,C  18)    -63.16 -0.000500    0.22    -62.94   
   296. D(C   8,C  17,C   5,C  11)   -172.14 -0.000323   -0.08   -172.22   
   297. D(C   8,C  17,C   5,H   9)   -124.26 -0.000555    0.17   -124.10   
   298. D(C   8,C  17,C   5,C   2)    109.49 -0.000255    0.30    109.80   
   299. D(C   2,C  17,C   5,C  18)   -172.65 -0.000245   -0.08   -172.73   
   300. D(H  15,C  17,C  11,C   5)    -92.31 -0.000315   -0.03    -92.35   
   301. D(C   2,C  17,C   5,C  11)     78.37 -0.000068   -0.39     77.98   
   302. D(C   2,C  17,C   5,H   9)    126.24 -0.000300   -0.14    126.11   
   303. D(C   2,C  17,C   5,C   8)   -109.49  0.000255   -0.30   -109.80   
   304. D(C  18,C  17,C  11,C   5)     86.63 -0.000654    0.14     86.77   
   305. D(C  18,C  17,C   5,C  11)   -108.98  0.000177   -0.30   -109.28   
   306. D(C  18,C  17,C   5,H   9)    -61.11 -0.000055   -0.05    -61.16   
   307. D(C  18,C  17,C   5,C   8)     63.16  0.000500   -0.22     62.94   
   308. D(C   5,C  17,C  11,C  12)    -86.90  0.001111   -0.17    -87.06   
   309. D(C  18,C  17,C   5,C   2)    172.65  0.000245    0.08    172.73   
[...]
     40      -0.046998   0.032591   0.099641  -0.055109  -0.000971   0.000221
     41       0.393317  -0.279603  -0.613142   0.336410   0.002773  -0.002751
     42       0.386508  -0.286351   0.271411  -0.155496  -0.001131   0.002079
     43      -0.340448   0.252639  -0.263952   0.150816   0.001196  -0.002078
     44       0.397937  -0.295822   0.339376  -0.193563  -0.001626   0.002867
     45       0.000866   0.000789   0.000005  -0.000024  -0.270182   0.312520
     46      -0.001490  -0.000308   0.000233   0.000633   0.369431  -0.427110
     47       0.000857  -0.001394  -0.000227   0.000209   0.168921  -0.195390
     48      -0.002124   0.000915  -0.009465   0.005992  -0.243271   0.260684
     49      -0.002029   0.001744  -0.008347   0.006665  -0.256853   0.275409
     50       0.000036  -0.000479  -0.003853   0.002208  -0.102626   0.110248
     51      -0.000067  -0.000119   0.000259  -0.000101   0.022003  -0.025689
     52       0.000099   0.000119  -0.000443   0.000202  -0.029282   0.034025
     53      -0.000133   0.000147  -0.000184   0.000057  -0.013416   0.015591
     54       0.000018  -0.000061   0.000527  -0.000238  -0.019580   0.018678
     55       0.000077  -0.000076   0.000125  -0.000073  -0.003560   0.003328
     56      -0.000133   0.000093   0.000081  -0.000030  -0.000832   0.000757
     57      -0.000194   0.000184  -0.001409   0.000798   0.000539  -0.000310
     58       0.000599  -0.000389  -0.000561   0.000381   0.008560  -0.005313
     59      -0.001518   0.001106   0.000101  -0.000022   0.003679  -0.002294
     60       0.000218  -0.000407  -0.000190  -0.000607   0.250233  -0.238852
     61      -0.000512   0.000322   0.000138  -0.000195   0.047546  -0.045378
     62       0.001348  -0.001014  -0.000190  -0.000029   0.011585  -0.010946
     63       0.000012  -0.000139   0.000215  -0.000214  -0.008687   0.005398
     64       0.001305  -0.002003   0.011918  -0.007481  -0.112348   0.073661
     65       0.001666  -0.001710   0.004876  -0.003185  -0.048316   0.031667
                 60         61         62         63         64         65    
      0       0.000190  -0.000376  -0.000238  -0.000136  -0.000427  -0.000635
      1       0.000725  -0.002031  -0.000567  -0.000327  -0.001278  -0.001848
      2       0.000311  -0.000748  -0.000249  -0.000017  -0.000438  -0.000630
      3      -0.008659   0.036615  -0.017996  -0.024783   0.022069   0.038386
      4       0.005313  -0.023735   0.012785   0.017536  -0.016013  -0.027922
      5       0.003150  -0.013854   0.007254   0.009966  -0.009018  -0.015721
      6       0.015231  -0.027525  -0.046314  -0.038531  -0.014964  -0.017494
      7       0.001184  -0.001920  -0.005039  -0.004289  -0.001632  -0.001978
      8      -0.001330   0.002502   0.003481   0.002860   0.001137   0.001281
      9       0.000010   0.000531  -0.000727  -0.000744   0.000820   0.001274
     10      -0.002825   0.007718   0.001842   0.002152   0.005073   0.006119
     11       0.002248  -0.006079  -0.000438  -0.000929  -0.003279  -0.003629
     12      -0.184220   0.509326   0.057046   0.037661  -0.237942  -0.429594
     13      -0.146024   0.403321   0.046645   0.031453  -0.188105  -0.339431
     14      -0.035878   0.099344   0.011849   0.007831  -0.046218  -0.083581
     15      -0.000808   0.002037  -0.007223  -0.007470  -0.004680  -0.006791
     16       0.001857  -0.006453   0.030824   0.031361   0.016203   0.022788
     17       0.000850  -0.002808   0.013152   0.013433   0.007036   0.009905
     18      -0.001111   0.002091  -0.000061  -0.001010   0.001552   0.002298
     19      -0.000175   0.001196   0.002011  -0.000406   0.001195   0.001731
     20      -0.003969   0.008982   0.002488   0.000728   0.005227   0.005714
     21       0.111231  -0.462280   0.220009   0.303876  -0.256706  -0.447263
     22      -0.070966   0.295225  -0.140819  -0.194606   0.164547   0.286691
     23      -0.041572   0.173116  -0.082481  -0.114053   0.096254   0.167936
     24       0.014853  -0.040733  -0.004369  -0.003074   0.021045   0.037744
     25       0.012405  -0.033238  -0.005091  -0.004149   0.017989   0.032334
     26       0.003142  -0.008347  -0.001519  -0.001269   0.004631   0.008355
     27       0.008297  -0.023989   0.101623   0.104986   0.054512   0.077037
     28      -0.025905   0.077608  -0.330999  -0.341850  -0.174001  -0.244199
     29      -0.011498   0.033760  -0.144091  -0.149248  -0.075938  -0.106723
     30      -0.181896   0.331526   0.529040   0.436389   0.163447   0.186150
     31      -0.009947   0.017823   0.030066   0.024829   0.009392   0.010593
     32       0.017638  -0.032363  -0.051012  -0.042048  -0.015843  -0.017854
     33      -0.022102  -0.003149  -0.031833   0.027393   0.016799  -0.006816
     34      -0.022634  -0.003429  -0.030080   0.025764   0.015827  -0.006346
     35      -0.009016  -0.001379  -0.011893   0.010184   0.006265  -0.002496
     36      -0.001962  -0.000586  -0.000526   0.000307   0.002105  -0.001066
     37       0.000953   0.000369   0.000161  -0.000090  -0.000791   0.000395
     38       0.000515   0.000098   0.000085  -0.000002  -0.000379   0.000180
     39       0.004253   0.000832   0.001281   0.000475  -0.004518   0.001875
     40       0.001816   0.000095  -0.001351   0.000360  -0.001128   0.000508
     41      -0.009058  -0.001899  -0.001356   0.001398   0.006831  -0.002037
     42       0.004878   0.001830   0.000712  -0.000740  -0.005641   0.002380
     43      -0.005304  -0.001664  -0.001683   0.001917   0.004451  -0.001569
     44       0.006822   0.002354   0.000318  -0.000813  -0.005609   0.001985
     45       0.074916   0.028589  -0.200251   0.213893   0.179440  -0.093454
     46      -0.102667  -0.038828   0.272578  -0.290952  -0.247320   0.129236
     47      -0.046990  -0.017559   0.124508  -0.133351  -0.113041   0.059153
     48       0.261678   0.039866   0.341814  -0.291069  -0.171315   0.066591
     49       0.277685   0.042560   0.360694  -0.307075  -0.180636   0.070326
     50       0.111063   0.017086   0.144273  -0.122776  -0.072317   0.027980
     51      -0.006047  -0.002671   0.020013  -0.020946  -0.017095   0.008831
     52       0.008439   0.003322  -0.023766   0.025055   0.022536  -0.011824
     53       0.003855   0.001509  -0.010951   0.011576   0.010336  -0.005411
     54      -0.052801  -0.016936  -0.008225   0.007905  -0.046379   0.030098
     55      -0.009082  -0.003140  -0.000245   0.000060  -0.007054   0.004555
     56      -0.002022  -0.000735   0.000207  -0.000247  -0.001378   0.000874
     57       0.003068   0.001155  -0.000658   0.000935  -0.000871   0.000502
     58       0.037944   0.017943  -0.022349   0.030643  -0.044559   0.027462
     59       0.016310   0.007726  -0.009649   0.013227  -0.019235   0.011860
     60       0.645316   0.211618   0.088315  -0.078486   0.503043  -0.328656
     61       0.122295   0.040251   0.015601  -0.013637   0.095942  -0.062744
     62       0.029628   0.009766   0.003455  -0.003185   0.023313  -0.015243
     63      -0.039879  -0.018317   0.021425  -0.029357   0.040186  -0.024758
     64      -0.480093  -0.221954   0.262158  -0.360700   0.495938  -0.305485
     65      -0.206282  -0.095418   0.112629  -0.155060   0.213061  -0.131373


-----------
IR SPECTRUM  
-----------

 Mode    freq (cm**-1)   T**2         TX         TY         TZ
-------------------------------------------------------------------
   6:        11.61    0.000000  (  0.000000   0.000000   0.000000)
   7:        23.49    0.000000  (  0.000000   0.000000   0.000000)
   8:        28.92    0.000000  (  0.000000   0.000000   0.000000)
   9:        56.91    0.000000  (  0.000000   0.000000   0.000000)
  10:        66.12    0.000000  (  0.000000   0.000000   0.000000)
  11:        70.48    0.000000  (  0.000000   0.000000   0.000000)
  12:       324.20    0.000000  (  0.000000   0.000000   0.000000)
  13:       326.77    0.000000  (  0.000000   0.000000   0.000000)
  14:       504.82    0.000000  (  0.000000   0.000000   0.000000)
  15:       505.26    0.000000  (  0.000000   0.000000   0.000000)
  16:       703.23    0.000000  (  0.000000   0.000000   0.000000)
  17:       707.73    0.000000  (  0.000000   0.000000   0.000000)
  18:       765.03    0.000000  (  0.000000   0.000000   0.000000)
  19:       767.48    0.000000  (  0.000000   0.000000   0.000000)
  20:       772.99    0.000000  (  0.000000   0.000000   0.000000)
  21:       773.04    0.000000  (  0.000000   0.000000   0.000000)
  22:       785.22    0.000000  (  0.000000   0.000000   0.000000)
  23:       785.49    0.000000  (  0.000000   0.000000   0.000000)
  24:       869.54    0.000000  (  0.000000   0.000000   0.000000)
  25:       869.68    0.000000  (  0.000000   0.000000   0.000000)
  26:       877.01    0.000000  (  0.000000   0.000000   0.000000)
  27:       878.26    0.000000  (  0.000000   0.000000   0.000000)
  28:       907.16    0.000000  (  0.000000   0.000000   0.000000)
  29:       908.86    0.000000  (  0.000000   0.000000   0.000000)
  30:       983.14    0.000000  (  0.000000   0.000000   0.000000)
  31:       983.59    0.000000  (  0.000000   0.000000   0.000000)
  32:      1023.70    0.000000  (  0.000000   0.000000   0.000000)
  33:      1023.87    0.000000  (  0.000000   0.000000   0.000000)
  34:      1054.13    0.000000  (  0.000000   0.000000   0.000000)
  35:      1056.21    0.000000  (  0.000000   0.000000   0.000000)
  36:      1068.52    0.000000  (  0.000000   0.000000   0.000000)
  37:      1069.53    0.000000  (  0.000000   0.000000   0.000000)
  38:      1098.63    0.000000  (  0.000000   0.000000   0.000000)
  39:      1100.27    0.000000  (  0.000000   0.000000   0.000000)
  40:      1120.76    0.000000  (  0.000000   0.000000   0.000000)
  41:      1121.40    0.000000  (  0.000000   0.000000   0.000000)
  42:      1224.09    0.000000  (  0.000000   0.000000   0.000000)
  43:      1225.28    0.000000  (  0.000000   0.000000   0.000000)
  44:      1267.98    0.000000  (  0.000000   0.000000   0.000000)
  45:      1268.14    0.000000  (  0.000000   0.000000   0.000000)
  46:      1344.59    0.000000  (  0.000000   0.000000   0.000000)
  47:      1344.93    0.000000  (  0.000000   0.000000   0.000000)
  48:      1389.09    0.000000  (  0.000000   0.000000   0.000000)
  49:      1390.09    0.000000  (  0.000000   0.000000   0.000000)
  50:      1555.30    0.000000  (  0.000000   0.000000   0.000000)
  51:      1555.55    0.000000  (  0.000000   0.000000   0.000000)
  52:      1642.20    0.000000  (  0.000000   0.000000   0.000000)
  53:      1642.31    0.000000  (  0.000000   0.000000   0.000000)
  54:      2954.48    0.000000  (  0.000000   0.000000   0.000000)
  55:      2955.22    0.000000  (  0.000000   0.000000   0.000000)
  56:      2978.76    0.000000  (  0.000000   0.000000   0.000000)
  57:      2978.99    0.000000  (  0.000000   0.000000   0.000000)
  58:      3118.08    0.000000  (  0.000000   0.000000   0.000000)
  59:      3118.54    0.000000  (  0.000000   0.000000   0.000000)
  60:      3124.51    0.000000  (  0.000000   0.000000   0.000000)
  61:      3125.48    0.000000  (  0.000000   0.000000   0.000000)
  62:      3133.91    0.000000  (  0.000000   0.000000   0.000000)
  63:      3134.73    0.000000  (  0.000000   0.000000   0.000000)
  64:      3141.72    0.000000  (  0.000000   0.000000   0.000000)
  65:      3143.05    0.000000  (  0.000000   0.000000   0.000000)

The first frequency considered to be a vibration is 6
The total number of vibrations considered is 60


--------------------------
THERMOCHEMISTRY AT 298.15K
--------------------------

Temperature         ... 298.15 K
Pressure            ... 1.00 atm
Total Mass          ... 132.21 AMU

Throughout the following assumptions are being made:
  (1) The electronic state is orbitally nondegenerate
  (2) There are no thermally accessible electronically excited states
  (3) Hindered rotations indicated by low frequency modes are not
      treated as such but are treated as vibrations and this may
      cause some error
  (4) All equations used are the standard statistical mechanics
      equations for an ideal gas
  (5) All vibrations are strictly harmonic

freq.      11.61  E(vib)   ...       0.58 
freq.      23.49  E(vib)   ...       0.56 
freq.      28.92  E(vib)   ...       0.55 
freq.      56.91  E(vib)   ...       0.51 
freq.      66.12  E(vib)   ...       0.50 
freq.      70.48  E(vib)   ...       0.50 
freq.     324.20  E(vib)   ...       0.25 
freq.     326.77  E(vib)   ...       0.24 
freq.     504.82  E(vib)   ...       0.14 
freq.     505.26  E(vib)   ...       0.14 
freq.     703.23  E(vib)   ...       0.07 
freq.     707.73  E(vib)   ...       0.07 
freq.     765.03  E(vib)   ...       0.06 
freq.     767.48  E(vib)   ...       0.06 
freq.     772.99  E(vib)   ...       0.05 
freq.     773.04  E(vib)   ...       0.05 
freq.     785.22  E(vib)   ...       0.05 
freq.     785.49  E(vib)   ...       0.05 
freq.     869.54  E(vib)   ...       0.04 
freq.     869.68  E(vib)   ...       0.04 
freq.     877.01  E(vib)   ...       0.04 
freq.     878.26  E(vib)   ...       0.04 
freq.     907.16  E(vib)   ...       0.03 
freq.     908.86  E(vib)   ...       0.03 
freq.     983.14  E(vib)   ...       0.02 
freq.     983.59  E(vib)   ...       0.02 
freq.    1023.70  E(vib)   ...       0.02 
freq.    1023.87  E(vib)   ...       0.02 
freq.    1054.13  E(vib)   ...       0.02 
freq.    1056.21  E(vib)   ...       0.02 
freq.    1068.52  E(vib)   ...       0.02 
freq.    1069.53  E(vib)   ...       0.02 
freq.    1098.63  E(vib)   ...       0.02 
freq.    1100.27  E(vib)   ...       0.02 
freq.    1120.76  E(vib)   ...       0.01 
freq.    1121.40  E(vib)   ...       0.01 
freq.    1224.09  E(vib)   ...       0.01 
freq.    1225.28  E(vib)   ...       0.01 
freq.    1267.98  E(vib)   ...       0.01 
freq.    1268.14  E(vib)   ...       0.01 
freq.    1344.59  E(vib)   ...       0.01 
freq.    1344.93  E(vib)   ...       0.01 
freq.    1389.09  E(vib)   ...       0.00 
freq.    1390.09  E(vib)   ...       0.00 
freq.    1555.30  E(vib)   ...       0.00 
freq.    1555.55  E(vib)   ...       0.00 
freq.    1642.20  E(vib)   ...       0.00 
freq.    1642.31  E(vib)   ...       0.00 
freq.    2954.48  E(vib)   ...       0.00 
freq.    2955.22  E(vib)   ...       0.00 
freq.    2978.76  E(vib)   ...       0.00 
freq.    2978.99  E(vib)   ...       0.00 
freq.    3118.08  E(vib)   ...       0.00 
freq.    3118.54  E(vib)   ...       0.00 
freq.    3124.51  E(vib)   ...       0.00 
freq.    3125.48  E(vib)   ...       0.00 
freq.    3133.91  E(vib)   ...       0.00 
freq.    3134.73  E(vib)   ...       0.00 
freq.    3141.72  E(vib)   ...       0.00 
freq.    3143.05  E(vib)   ...       0.00 

------------
INNER ENERGY
------------

The inner energy is: U= E(el) + E(ZPE) + E(vib) + E(rot) + E(trans)
    E(el)   - is the total energy from the electronic structure calculation
              = E(kin-el) + E(nuc-el) + E(el-el) + E(nuc-nuc)
    E(ZPE)  - the the zero temperature vibrational energy from the frequency calculation
    E(vib)  - the the finite temperature correction to E(ZPE) due to population
              of excited vibrational states
    E(rot)  - is the rotational thermal energy
    E(trans)- is the translational thermal energy

Summary of contributions to the inner energy U:
Electronic energy                ...    -27.43396839 Eh
Zero point energy                ...      0.18168400 Eh     114.01 kcal/mol
Thermal vibrational correction   ...      0.00786486 Eh       4.94 kcal/mol
Thermal rotational correction    ...      0.00141627 Eh       0.89 kcal/mol
Thermal translational correction ...      0.00141627 Eh       0.89 kcal/mol
-----------------------------------------------------------------------
Total thermal energy                    -27.24158698 Eh


Summary of corrections to the electronic energy:
(perhaps to be used in another calculation)
Total thermal correction                  0.01069740 Eh       6.71 kcal/mol
Non-thermal (ZPE) correction              0.18168400 Eh     114.01 kcal/mol
-----------------------------------------------------------------------
Total correction                          0.19238141 Eh     120.72 kcal/mol


--------
ENTHALPY
--------

The enthalpy is H = U + kB*T
                kB is Boltzmann's constant
Total free energy                 ...    -27.24158698 Eh 
Thermal Enthalpy correction       ...      0.00094421 Eh       0.59 kcal/mol
-----------------------------------------------------------------------
Total Enthalpy                    ...    -27.24064277 Eh


Note: Only C1 symmetry has been detected, increase convergence thresholds 
      if your molecule has a higher symmetry. Symmetry factor of 1.0 is   
      used for the rotational entropy correction. 
 

Note: Rotational entropy computed according to Herzberg 
Infrared and Raman Spectra, Chapter V,1, Van Nostrand Reinhold, 1945 
Point Group:  C1, Symmetry Number:   1  
Rotational constants in cm-1:     0.074670     0.032019     0.031662 

Vibrational entropy computed according to the QRRHO of S. Grimme
Chem.Eur.J. 2012 18 9955


-------
ENTROPY
-------

The entropy contributions are T*S = T*(S(el)+S(vib)+S(rot)+S(trans))
     S(el)   - electronic entropy
     S(vib)  - vibrational entropy
     S(rot)  - rotational entropy
     S(trans)- translational entropy
The entropies will be listed as mutliplied by the temperature to get
units of energy

Electronic entropy                ...      0.00000000 Eh      0.00 kcal/mol
Vibrational entropy               ...      0.01502291 Eh      9.43 kcal/mol
Rotational entropy                ...      0.01399035 Eh      8.78 kcal/mol
Translational entropy             ...      0.01926665 Eh     12.09 kcal/mol
-----------------------------------------------------------------------
Final entropy term                ...      0.04827991 Eh     30.30 kcal/mol

In case the symmetry of your molecule has not been determined correctly
or in case you have a reason to use a different symmetry number we print 
out the resulting rotational entropy values for sn=1,12 :
 --------------------------------------------------------
|  sn= 1 | S(rot)=       0.01399035 Eh      8.78 kcal/mol|
|  sn= 2 | S(rot)=       0.01333589 Eh      8.37 kcal/mol|
|  sn= 3 | S(rot)=       0.01295306 Eh      8.13 kcal/mol|
|  sn= 4 | S(rot)=       0.01268144 Eh      7.96 kcal/mol|
|  sn= 5 | S(rot)=       0.01247075 Eh      7.83 kcal/mol|
|  sn= 6 | S(rot)=       0.01229861 Eh      7.72 kcal/mol|
|  sn= 7 | S(rot)=       0.01215306 Eh      7.63 kcal/mol|
|  sn= 8 | S(rot)=       0.01202698 Eh      7.55 kcal/mol|
|  sn= 9 | S(rot)=       0.01191577 Eh      7.48 kcal/mol|
|  sn=10 | S(rot)=       0.01181629 Eh      7.41 kcal/mol|
|  sn=11 | S(rot)=       0.01172630 Eh      7.36 kcal/mol|
|  sn=12 | S(rot)=       0.01164415 Eh      7.31 kcal/mol|
 --------------------------------------------------------


-------------------
GIBBS FREE ENERGY
-------------------

The Gibbs free energy is G = H - T*S

Total enthalpy                    ...    -27.24064277 Eh 
Total entropy correction          ...     -0.04827991 Eh    -30.30 kcal/mol
-----------------------------------------------------------------------
Final Gibbs free energy         ...    -27.28892269 Eh

For completeness - the Gibbs free energy minus the electronic energy
G-E(el)                           ...      0.14504570 Eh     91.02 kcal/mol


Total Time for Numerical Frequencies  :       119.569 sec

Timings for individual modules:

Sum of individual times         ...       12.682 sec (=   0.211 min)
Geometry relaxation             ...       10.536 sec (=   0.176 min)  83.1 %
XTB module                      ...        2.146 sec (=   0.036 min)  16.9 %
                             ****ORCA TERMINATED NORMALLY****
TOTAL RUN TIME: 0 days 0 hours 2 minutes 19 seconds 507 msec
