
                                 *****************
                                 * O   R   C   A *
                                 *****************

           --- An Ab Initio, DFT and Semiempirical electronic structure package ---

                  #######################################################
                  #                        -***-                        #
                  #          Department of theory and spectroscopy      #
                  #               Directorship: Frank Neese             #
                  #        Max Planck Institute fuer Kohlenforschung    #
                  #                Kaiser Wilhelm Platz 1               #
                  #                 D-45470 Muelheim/Ruhr               #
                  #                      Germany                        #
                  #                                                     #
                  #                  All rights reserved                #
                  #                        -***-                        #
                  #######################################################


                         Program Version 4.2.1 -  RELEASE  -


 With contributions from (in alphabetic order):
   Daniel Aravena         : Magnetic Suceptibility
   Michael Atanasov       : Ab Initio Ligand Field Theory (pilot matlab implementation)
   Alexander A. Auer      : GIAO ZORA, VPT2
   Ute Becker             : Parallelization
   Giovanni Bistoni       : ED, misc. LED, open-shell LED, HFLD
   Martin Brehm           : Molecular dynamics
   Dmytro Bykov           : SCF Hessian
   Vijay G. Chilkuri      : MRCI spin determinant printing, contributions to CSF-ICE
   Dipayan Datta          : RHF DLPNO-CCSD density
   Achintya Kumar Dutta   : EOM-CC, STEOM-CC
   Dmitry Ganyushin       : Spin-Orbit,Spin-Spin,Magnetic field MRCI
   Miquel Garcia          : C-PCM Hessian, Gaussian charge scheme
   Yang Guo               : DLPNO-NEVPT2, CIM, IAO-localization
   Andreas Hansen         : Spin unrestricted coupled pair/coupled cluster methods
   Benjamin Helmich-Paris : CASSCF linear response (MC-RPA)
   Lee Huntington         : MR-EOM, pCC
   Robert Izsak           : Overlap fitted RIJCOSX, COSX-SCS-MP3, EOM
   Christian Kollmar      : KDIIS, OOCD, Brueckner-CCSD(T), CCSD density
   Simone Kossmann        : Meta GGA functionals, TD-DFT gradient, OOMP2, MP2 Hessian
   Martin Krupicka        : AUTO-CI
   Lucas Lang             : DCDCAS
   Dagmar Lenk            : GEPOL surface, SMD
   Dimitrios Liakos       : Extrapolation schemes; Compound Job, initial MDCI parallelization
   Dimitrios Manganas     : Further ROCIS development; embedding schemes
   Dimitrios Pantazis     : SARC Basis sets
   Taras Petrenko         : DFT Hessian,TD-DFT gradient, ASA, ECA, R-Raman, ABS, FL, XAS/XES, NRVS
   Peter Pinski           : DLPNO-MP2, DLPNO-MP2 Gradient
   Christoph Reimann      : Effective Core Potentials
   Marius Retegan         : Local ZFS, SOC
   Christoph Riplinger    : Optimizer, TS searches, QM/MM, DLPNO-CCSD(T), (RO)-DLPNO pert. Triples
   Tobias Risthaus        : Range-separated hybrids, TD-DFT gradient, RPA, STAB
   Michael Roemelt        : Original ROCIS implementation
   Masaaki Saitow         : Open-shell DLPNO-CCSD energy and density
   Barbara Sandhoefer     : DKH picture change effects
   Avijit Sen             : IP-ROCIS
   Kantharuban Sivalingam : CASSCF convergence, NEVPT2, FIC-MRCI
   Bernardo de Souza      : ESD, SOC TD-DFT
   Georgi Stoychev        : AutoAux, RI-MP2 NMR
   Willem Van den Heuvel  : Paramagnetic NMR
   Boris Wezisla          : Elementary symmetry handling
   Frank Wennmohs         : Technical directorship


 We gratefully acknowledge several colleagues who have allowed us to
 interface, adapt or use parts of their codes:
   Stefan Grimme, W. Hujo, H. Kruse,             : VdW corrections, initial TS optimization,
                  C. Bannwarth                     DFT functionals, gCP, sTDA/sTD-DF
   Ed Valeev, F. Pavosevic, A. Kumar             : LibInt (2-el integral package), F12 methods
   Garnet Chan, S. Sharma, J. Yang, R. Olivares  : DMRG
   Ulf Ekstrom                                   : XCFun DFT Library
   Mihaly Kallay                                 : mrcc  (arbitrary order and MRCC methods)
   Andreas Klamt, Michael Diedenhofen            : otool_cosmo (COSMO solvation model)
   Jiri Pittner, Ondrej Demel                    : Mk-CCSD
   Frank Weinhold                                : gennbo (NPA and NBO analysis)
   Christopher J. Cramer and Donald G. Truhlar   : smd solvation model
   Lars Goerigk                                  : TD-DFT with DH, B97 family of functionals
   V. Asgeirsson, H. Jonsson                     : NEB implementation
   FAccTs GmbH                                   : IRC, NEB, NEB-TS, Multilevel, MM, QM/MM, CI optimization
   S Lehtola, MJT Oliveira, MAL Marques          : LibXC Library


 Your calculation uses the libint2 library for the computation of 2-el integrals
 For citations please refer to: http://libint.valeyev.net

 Your ORCA version has been built with support for libXC version: 4.2.3
 For citations please refer to: https://tddft.org/programs/libxc/

 This ORCA versions uses:
   CBLAS   interface :  Fast vector & matrix operations
   LAPACKE interface :  Fast linear algebra routines
   SCALAPACK package :  Parallel linear algebra routines




***************************************
The coordinates will be read from file: init.xyz
***************************************


Your calculation utilizes the semiempirical GFN2-xTB method
Please cite in your paper:
C. Bannwarth, Ehlert S., S. Grimme,  J. Chem. Theory Comput., 15, (2019), 1652.
   

----- Orbital basis set information -----
Your calculation utilizes the basis: def2-SVP
   F. Weigend and R. Ahlrichs, Phys. Chem. Chem. Phys. 7, 3297 (2005).

cite the ECPs for I  [Def2-ECP] as follows:
Ce-Yb(ecp-28): M. Dolg, H. Stoll, H.Preuss, J. Chem. Phys., 1989, 90, 1730-1734.
Y-Cd(ecp-28), Hf-Hg(ecp-46): D. Andrae,U. Haeussermann, M. Dolg, H. Stoll, H. Preuss, Theor. Chim. Acta, 1990, 77, 123-141.
In-Sb(ecp-28), Tl-Bi(ecp-46): B. Metz, H. Stoll, M. Dolg, J. Chem. Phys., 2000, 113, 2563-2569.
Te-Xe(ecp-28), Po-Rn(ecp-46): K. A. Peterson, D. Figgen, E. Goll, H. Stoll, M. Dolg, J. Chem. Phys., 2003, 119, 11113-11123.
Rb(ecp-28), Cs(ecp-46): T. Leininger, A. Nicklass, W. Kuechle, H. Stoll, M. Dolg, A. Bergner, Chem. Phys. Lett., 1996, 255, 274-280.
Sr(ecp-28), Ba(ecp-46): M. Kaupp, P. V. Schleyer, H. Stoll and H. Preuss, J. Chem. Phys., 1991, 94, 1360-1366.
La(ecp-46): M. Dolg, H. Stoll, A. Savin, H. Preuss, Theor. Chim. Acta, 1989, 75, 173-194.
Lu(ecp-28): X. Cao, M. Dolg, J. Chem. Phys., 2001, 115, 7348-7355.

ECP parameters for I  [Def2-ECP] have been obtained from:
TURBOMOLE (7.0.2)

================================================================================
                                        WARNINGS
                       Please study these warnings very carefully!
================================================================================


WARNING: The environment variable RSH_COMMAND is not set!
  ===> : All Displacements for the Numerical Hessian calculation
         will be started on localhost

WARNING: Geometry Optimization
  ===> : Switching off AutoStart
         For restart on a previous wavefunction, please use MOREAD

WARNING: Found dipole moment calculation with XTB calculation
  ===> : Switching off dipole moment calculation


INFO   : the flag for use of LIBINT has been found!

================================================================================
                                       INPUT FILE
================================================================================
NAME = opt+numfreq.inp
|  1> ! xTB2 Opt NumFreq
|  2> 
|  3> *xyzfile -1 1 init.xyz
|  4> 
|  5> %pal
|  6>  nprocs 2
|  7> end
|  8> 
|  9>                          ****END OF INPUT****
================================================================================

                       *****************************
                       * Geometry Optimization Run *
                       *****************************

Geometry optimization settings:
Update method            Update   .... BFGS
Choice of coordinates    CoordSys .... Z-matrix Internals
Initial Hessian          InHess   .... Almoef's Model

Convergence Tolerances:
Energy Change            TolE     ....  5.0000e-06 Eh
Max. Gradient            TolMAXG  ....  3.0000e-04 Eh/bohr
RMS Gradient             TolRMSG  ....  1.0000e-04 Eh/bohr
Max. Displacement        TolMAXD  ....  4.0000e-03 bohr
RMS Displacement         TolRMSD  ....  2.0000e-03 bohr
Strict Convergence                ....  False
------------------------------------------------------------------------------
                        ORCA OPTIMIZATION COORDINATE SETUP
------------------------------------------------------------------------------

The optimization will be done in new redundant internal coordinates
Making redundant internal coordinates   ...  (new redundants) done
Evaluating the initial hessian          ...  (Almloef) done
Evaluating the coordinates              ...  done
Calculating the B-matrix                .... done
Calculating the G-matrix                .... done
Diagonalizing the G-matrix              .... done
The first mode is                       ....    5
The number of degrees of freedom        ....   12

    -----------------------------------------------------------------
                    Redundant Internal Coordinates


    -----------------------------------------------------------------
         Definition                    Initial Value    Approx d2E/dq
    -----------------------------------------------------------------
      1. B(H   1,C   0)                  1.0775         0.376982   
      2. B(H   2,C   0)                  1.0775         0.377007   
      3. B(H   3,C   0)                  1.0776         0.376880   
      4. B(I   4,H   1)                  3.0279         0.000980   
      5. B(I   4,C   0)                  3.1627         0.003119   
      6. B(I   4,H   2)                  3.0276         0.000981   
      7. B(I   4,H   3)                  3.0293         0.000975   
      8. B(I   5,C   0)                  2.1978         0.107990   
      9. A(H   1,C   0,H   3)          111.7933         0.295057   
     10. A(H   2,C   0,H   3)          111.8070         0.295060   
     11. A(H   1,C   0,I   5)          107.0057         0.283796   
     12. A(H   2,C   0,I   5)          107.0067         0.283799   
     13. A(H   3,C   0,I   5)          107.0016         0.283784   
     14. A(H   1,C   0,I   4)           72.9769         0.176330   
     15. A(H   2,C   0,I   4)           72.9599         0.176332   
     16. A(H   3,C   0,I   4)           73.0493         0.176325   
     17. A(H   1,C   0,H   2)          111.8630         0.295072   
    -----------------------------------------------------------------

Number of atoms                         .... 6
Number of degrees of freedom            .... 17

         *************************************************************
         *                GEOMETRY OPTIMIZATION CYCLE   1            *
         *************************************************************
      -----------------------------------------------------------      
     |                   =====================                   |     
     |                           x T B                           |     
     |                   =====================                   |     
     |                         S. Grimme                         |     
     |          Mulliken Center for Theoretical Chemistry        |     
     |                    University of Bonn                     |     
      -----------------------------------------------------------      

   * xtb version 6.4.0 (d4b70c2) compiled by 'ehlert@majestix' on 2021-02-01

   xtb is free software: you can redistribute it and/or modify it under
   the terms of the GNU Lesser General Public License as published by
   the Free Software Foundation, either version 3 of the License, or
   (at your option) any later version.
   
   xtb is distributed in the hope that it will be useful,
   but WITHOUT ANY WARRANTY; without even the implied warranty of
   MERCHANTABILITY or FITNESS FOR A PARTICULAR PURPOSE.  See the
   GNU Lesser General Public License for more details.
   
   Cite this work as:
   * C. Bannwarth, E. Caldeweyher, S. Ehlert, A. Hansen, P. Pracht,
     J. Seibert, S. Spicher, S. Grimme, WIREs Comput. Mol. Sci., 2020,
     e01493. DOI: 10.1002/wcms.1493
   
   for GFN2-xTB:
   * C. Bannwarth, S. Ehlert and S. Grimme., J. Chem. Theory Comput., 2019,
     15, 1652-1671. DOI: 10.1021/acs.jctc.8b01176
   for GFN1-xTB:
   * S. Grimme, C. Bannwarth, P. Shushkov, J. Chem. Theory Comput., 2017,
     13, 1989-2009. DOI: 10.1021/acs.jctc.7b00118
   for GFN0-xTB:
   * P. Pracht, E. Caldeweyher, S. Ehlert, S. Grimme, ChemRxiv, 2019, preprint.
     DOI: 10.26434/chemrxiv.8326202.v1
   for GFN-FF:
   * S. Spicher and S. Grimme, Angew. Chem. Int. Ed., 2020, 59, 15665-15673.
     DOI: 10.1002/anie.202004239
   
   for DFT-D4:
   * E. Caldeweyher, C. Bannwarth and S. Grimme, J. Chem. Phys., 2017,
     147, 034112. DOI: 10.1063/1.4993215
   * E. Caldeweyher, S. Ehlert, A. Hansen, H. Neugebauer, S. Spicher,
     C. Bannwarth and S. Grimme, J. Chem. Phys., 2019, 150, 154122.
     DOI: 10.1063/1.5090222
   * E. Caldeweyher, J.-M. Mewes, S. Ehlert and S. Grimme, Phys. Chem. Chem. Phys.
     2020, 22, 8499-8512. DOI: 10.1039/D0CP00502A
   
   for sTDA-xTB:
   * S. Grimme and C. Bannwarth, J. Chem. Phys., 2016, 145, 054103.
     DOI: 10.1063/1.4959605
   
   in the mass-spec context:
   * V. Asgeirsson, C. Bauer and S. Grimme, Chem. Sci., 2017, 8, 4879.
     DOI: 10.1039/c7sc00601b
   * J. Koopman and S. Grimme, ACS Omega 2019, 4, 12, 15120-15133.
     DOI: 10.1021/acsomega.9b02011
   
   for metadynamics refer to:
   * S. Grimme, J. Chem. Theory Comput., 2019, 155, 2847-2862
     DOI: 10.1021/acs.jctc.9b00143
   
   with help from (in alphabetical order)
   P. Atkinson, C. Bannwarth, F. Bohle, G. Brandenburg, E. Caldeweyher
   M. Checinski, S. Dohm, S. Ehlert, S. Ehrlich, I. Gerasimov, J. Koopman
   C. Lavinge, S. Lehtola, F. März, M. Müller, F. Musil, H. Neugebauer
   J. Pisarek, P. Pracht, J. Seibert, P. Shushkov, S. Spicher, M. Stahn
   T. Strunk, J. Stückrath, T. Rose, and J. Unsleber
   
 * started run on 2022/05/09 at 09:36:01.963     

           -------------------------------------------------
          |                Calculation Setup                |
           -------------------------------------------------

          program call               : /opt/orca/otool_xtb opt+numfreq_XTB.xyz --grad -c -1 -u 0 -P 2 --namespace opt+numfreq
          calculation namespace      : opt+numfreq
          coordinate file            : opt+numfreq_XTB.xyz
          omp threads                :                     2
          number of atoms            :                     6
          number of electrons        :                    22
          charge                     :                    -1
          spin                       :                   0.0
          first test random number   :      0.88147599479438

   ID    Z sym.   atoms
    1    6 C      1
    2    1 H      2-4
    3   53 I      5, 6

molecular fragmentation (1/2 indicates fragments):
111121
# atoms in fragment 1/2:     5     1
 fragment masses (1/2) :      141.94      126.90
CMA distance (Bohr)    :   9.677
constraining FC (au)   :  0.0500
########################################################################
[WARNING] Please study the warnings concerning your input carefully
-1- prog_main_parseArguments: Process number higher than OMP_NUM_THREADS, I hope you know what you are doing.
########################################################################

           -------------------------------------------------
          |                 G F N 2 - x T B                 |
           -------------------------------------------------

        Reference                      10.1021/acs.jctc.8b01176
      * Hamiltonian:
        H0-scaling (s, p, d)           1.850000    2.230000    2.230000
        zeta-weighting                 0.500000
      * Dispersion:
        s8                             2.700000
        a1                             0.520000
        a2                             5.000000
        s9                             5.000000
      * Repulsion:
        kExp                           1.500000    1.000000
        rExp                           1.000000
      * Coulomb:
        alpha                          2.000000
        third order                    shell-resolved
        anisotropic                    true
        a3                             3.000000
        a5                             4.000000
        cn-shift                       1.200000
        cn-exp                         4.000000
        max-rad                        5.000000


          ...................................................
          :                      SETUP                      :
          :.................................................:
          :  # basis functions                  27          :
          :  # atomic orbitals                  25          :
          :  # shells                           11          :
          :  # electrons                        22          :
          :  max. iterations                   250          :
          :  Hamiltonian                  GFN2-xTB          :
          :  restarted?                      false          :
          :  GBSA solvation                  false          :
          :  PC potential                    false          :
          :  electronic temp.          300.0000000     K    :
          :  accuracy                    1.0000000          :
          :  -> integral cutoff          0.2500000E+02      :
          :  -> integral neglect         0.1000000E-07      :
          :  -> SCF convergence          0.1000000E-05 Eh   :
          :  -> wf. convergence          0.1000000E-03 e    :
          :  Broyden damping             0.4000000          :
          ...................................................

 iter      E             dE          RMSdq      gap      omega  full diag
   1    -11.6031113 -0.116031E+02  0.113E+01    3.11       0.0  T
   2    -11.6128569 -0.974565E-02  0.526E+00    2.17       1.0  T
   3    -11.6144718 -0.161492E-02  0.162E+00    1.87       1.0  T
   4    -11.6146662 -0.194371E-03  0.120E+00    2.06       1.0  T
   5    -11.6150829 -0.416707E-03  0.548E-01    2.00       1.0  T
   6    -11.6151557 -0.728282E-04  0.271E-01    1.85       1.0  T
   7    -11.6151519  0.385425E-05  0.279E-01    1.85       1.0  T
   8    -11.6152063 -0.543686E-04  0.216E-02    1.92       1.9  T
   9    -11.6152058  0.470555E-06  0.315E-02    1.93       1.3  T
  10    -11.6152064 -0.614914E-06  0.250E-03    1.93      16.3  T
  11    -11.6152064 -0.294090E-08  0.916E-04    1.92      44.6  T
  12    -11.6152064 -0.733774E-09  0.841E-05    1.92     485.6  T

   *** convergence criteria satisfied after 12 iterations ***

         #    Occupation            Energy/Eh            Energy/eV
      -------------------------------------------------------------
         1        2.0000           -0.6086953             -16.5634
       ...           ...                  ...                  ...
         5        2.0000           -0.3709756             -10.0948
         6        2.0000           -0.3501006              -9.5267
         7        2.0000           -0.2840849              -7.7303
         8        2.0000           -0.2840798              -7.7302
         9        2.0000           -0.1798163              -4.8931
        10        2.0000           -0.1743205              -4.7435
        11        2.0000           -0.1743198              -4.7435 (HOMO)
        12                         -0.1036016              -2.8191 (LUMO)
        13                          0.1591895               4.3318
        14                          0.1592058               4.3322
        15                          0.1844349               5.0187
        16                          0.1844372               5.0188
       ...                                ...                  ...
        25                          0.4616421              12.5619
      -------------------------------------------------------------
                  HL-Gap            0.0707182 Eh            1.9243 eV
             Fermi-level           -0.1389607 Eh           -3.7813 eV

 SCC (total)                   0 d,  0 h,  0 min,  0.035 sec
 SCC setup                      ...        0 min,  0.001 sec (  1.542%)
 Dispersion                     ...        0 min,  0.000 sec (  0.142%)
 classical contributions        ...        0 min,  0.000 sec (  0.068%)
 integral evaluation            ...        0 min,  0.001 sec (  3.714%)
 iterations                     ...        0 min,  0.027 sec ( 77.069%)
 molecular gradient             ...        0 min,  0.003 sec (  7.318%)
 printout                       ...        0 min,  0.004 sec ( 10.000%)

         :::::::::::::::::::::::::::::::::::::::::::::::::::::
         ::                     SUMMARY                     ::
         :::::::::::::::::::::::::::::::::::::::::::::::::::::
         :: total energy             -11.554853658090 Eh    ::
         :: gradient norm              0.000152311215 Eh/a0 ::
         :: HOMO-LUMO gap              1.924340779455 eV    ::
         ::.................................................::
         :: SCC energy               -11.615206408409 Eh    ::
         :: -> isotropic ES            0.140061089679 Eh    ::
         :: -> anisotropic ES         -0.004258856889 Eh    ::
         :: -> anisotropic XC         -0.000637510410 Eh    ::
         :: -> dispersion             -0.003714853249 Eh    ::
         :: repulsion energy           0.060353982594 Eh    ::
         :: add. restraining           0.000000000000 Eh    ::
         :: total charge              -1.000000000000 e     ::
         :::::::::::::::::::::::::::::::::::::::::::::::::::::

           -------------------------------------------------
          |                Property Printout                |
           -------------------------------------------------

    * Orbital Energies and Occupations

         #    Occupation            Energy/Eh            Energy/eV
      -------------------------------------------------------------
         1        2.0000           -0.6086953             -16.5634
         2        2.0000           -0.4744748             -12.9111
         3        2.0000           -0.4436696             -12.0729
         4        2.0000           -0.3710254             -10.0961
         5        2.0000           -0.3709756             -10.0948
         6        2.0000           -0.3501006              -9.5267
         7        2.0000           -0.2840849              -7.7303
         8        2.0000           -0.2840798              -7.7302
         9        2.0000           -0.1798163              -4.8931
        10        2.0000           -0.1743205              -4.7435
        11        2.0000           -0.1743198              -4.7435 (HOMO)
        12                         -0.1036016              -2.8191 (LUMO)
        13                          0.1591895               4.3318
        14                          0.1592058               4.3322
        15                          0.1844349               5.0187
        16                          0.1844372               5.0188
        17                          0.2825079               7.6874
        18                          0.3098456               8.4313
        19                          0.3099172               8.4333
        20                          0.3668570               9.9827
        21                          0.3668612               9.9828
        22                          0.3986647              10.8482
       ...                                ...                  ...
        25                          0.4616421              12.5619
      -------------------------------------------------------------
                  HL-Gap            0.0707182 Eh            1.9243 eV
             Fermi-level           -0.1389607 Eh           -3.7813 eV

     #   Z          covCN         q      C6AA      α(0)
     1   6 C        3.786    -0.020    20.944     6.518
     2   1 H        0.931     0.060     2.194     2.316
     3   1 H        0.931     0.060     2.194     2.316
     4   1 H        0.931     0.060     2.195     2.317
     5  53 I        0.059    -0.885   422.767    35.569
     6  53 I        0.964    -0.276   392.778    34.212

 Mol. C6AA /au·bohr⁶  :       2433.244800
 Mol. C8AA /au·bohr⁸  :     182040.477290
 Mol. α(0) /au        :         83.248060


Wiberg/Mayer (AO) data.
largest (>0.10) Wiberg bond orders for each atom

 ---------------------------------------------------------------------------
     #   Z sym  total        # sym  WBO       # sym  WBO       # sym  WBO
 ---------------------------------------------------------------------------
     1   6 C    3.941 --     4 H    0.999     2 H    0.999     3 H    0.999
                             6 I    0.868
     2   1 H    0.996 --     1 C    0.999
     3   1 H    0.996 --     1 C    0.999
     4   1 H    0.996 --     1 C    0.999
     5  53 I    0.070 --     6  53 I    0.869 --     1 C    0.868
 ---------------------------------------------------------------------------

Topologies differ in total number of bonds
Writing topology from bond orders to xtbtopo.mol

molecular dipole:
                 x           y           z       tot (Debye)
 q only:        0.837      -2.320       0.013
   full:        1.724      -2.202       0.008       7.108
molecular quadrupole (traceless):
                xx          xy          yy          xz          yz          zz
 q only:      -17.861      -1.092       4.627       0.140       0.065      13.233
  q+dip:      -37.939      -1.844      14.830       0.276       0.065      23.110
   full:      -35.461      -1.345      13.624       0.256       0.062      21.837


           -------------------------------------------------
          | TOTAL ENERGY              -11.554853658090 Eh   |
          | GRADIENT NORM               0.000152311215 Eh/α |
          | HOMO-LUMO GAP               1.924340779455 eV   |
           -------------------------------------------------

------------------------------------------------------------------------
 * finished run on 2022/05/09 at 09:36:02.034     
------------------------------------------------------------------------
 total:
 * wall-time:     0 d,  0 h,  0 min,  0.072 sec
 *  cpu-time:     0 d,  0 h,  0 min,  0.082 sec
 * ratio c/w:     1.142 speedup
 SCF:
 * wall-time:     0 d,  0 h,  0 min,  0.038 sec
 *  cpu-time:     0 d,  0 h,  0 min,  0.044 sec
 * ratio c/w:     1.180 speedup


-------------------------   --------------------
FINAL SINGLE POINT ENERGY       -11.554853658090
-------------------------   --------------------

------------------------------------------------------------------------------
                         ORCA GEOMETRY RELAXATION STEP
------------------------------------------------------------------------------

Reading the OPT-File                    .... done
Getting information on internals        .... done
Copying old internal coords+grads       .... done
Making the new internal coordinates     .... (new redundants).... done
Validating the new internal coordinates .... (new redundants).... done
Calculating the B-matrix                .... done
Calculating the G,G- and P matrices     .... done
Transforming gradient to internals      .... done
Projecting the internal gradient        .... done
Number of atoms                         ....   6
Number of internal coordinates          ....  17
Current Energy                          ....   -11.554853658 Eh
Current gradient norm                   ....     0.000152311 Eh/bohr
Maximum allowed component of the step   ....  0.300
Current trust radius                    ....  0.300
Evaluating the initial hessian          ....  (Almloef) done
Projecting the Hessian                  .... done
Forming the augmented Hessian           .... done
Diagonalizing the augmented Hessian     .... done
Last element of RFO vector              ....  0.999987756
Lowest eigenvalues of augmented Hessian:
 -0.000000091  0.001563056  0.035111817  0.035116033  0.107990217
Length of the computed step             ....  0.004948592
The final length of the internal step   ....  0.004948592
Converting the step to cartesian space:
 Initial RMS(Int)=    0.0012002098
Transforming coordinates:
 Iter   0:  RMS(Cart)=    0.0005915174 RMS(Int)=    0.0012002483
 Iter   1:  RMS(Cart)=    0.0000000303 RMS(Int)=    0.0000000465
done
Storing new coordinates                 .... done

                                .--------------------.
          ----------------------|Geometry convergence|-------------------------
          Item                value                   Tolerance       Converged
          ---------------------------------------------------------------------
          RMS gradient        0.0000277861            0.0001000000      YES
          MAX gradient        0.0000944969            0.0003000000      YES
          RMS step            0.0012002098            0.0020000000      YES
          MAX step            0.0026795626            0.0040000000      YES
          ........................................................
          Max(Bonds)      0.0014      Max(Angles)    0.02
          Max(Dihed)        0.00      Max(Improp)    0.00
          ---------------------------------------------------------------------

                    ***********************HURRAY********************
                    ***        THE OPTIMIZATION HAS CONVERGED     ***
                    *************************************************


    ---------------------------------------------------------------------------
                         Redundant Internal Coordinates

                          --- Optimized Parameters ---  
                            (Angstroem and degrees)

        Definition                    OldVal   dE/dq     Step     FinalVal
    ----------------------------------------------------------------------------
     1. B(H   1,C   0)                1.0775 -0.000004  0.0000    1.0775   
     2. B(H   2,C   0)                1.0775 -0.000008  0.0000    1.0775   
     3. B(H   3,C   0)                1.0776  0.000009 -0.0000    1.0776   
     4. B(I   4,H   1)                3.0279  0.000000  0.0013    3.0292   
     5. B(I   4,C   0)                3.1627 -0.000024  0.0014    3.1641   
     6. B(I   4,H   2)                3.0276 -0.000003  0.0014    3.0290   
     7. B(I   4,H   3)                3.0293  0.000013  0.0011    3.0304   
     8. B(I   5,C   0)                2.1978 -0.000003  0.0000    2.1979   
     9. A(H   1,C   0,H   3)          111.79 -0.000043    0.01    111.80   
    10. A(H   2,C   0,H   3)          111.81 -0.000016    0.00    111.81   
    11. A(H   1,C   0,I   5)          107.01 -0.000015    0.00    107.01   
    12. A(H   2,C   0,I   5)          107.01 -0.000017    0.00    107.01   
    13. A(H   3,C   0,I   5)          107.00 -0.000006    0.00    107.00   
    14. A(H   1,C   0,I   4)           72.98  0.000011   -0.00     72.98   
    15. A(H   2,C   0,I   4)           72.96  0.000010    0.00     72.96   
    16. A(H   3,C   0,I   4)           73.05  0.000018   -0.01     73.04   
    17. A(H   1,C   0,H   2)          111.86  0.000094   -0.02    111.84   
    ----------------------------------------------------------------------------
                 *******************************************************
                 *** FINAL ENERGY EVALUATION AT THE STATIONARY POINT ***
                 ***               (AFTER    1 CYCLES)               ***
                 *******************************************************
      -----------------------------------------------------------      
     |                   =====================                   |     
     |                           x T B                           |     
     |                   =====================                   |     
     |                         S. Grimme                         |     
     |          Mulliken Center for Theoretical Chemistry        |     
     |                    University of Bonn                     |     
      -----------------------------------------------------------      

   * xtb version 6.4.0 (d4b70c2) compiled by 'ehlert@majestix' on 2021-02-01

   xtb is free software: you can redistribute it and/or modify it under
   the terms of the GNU Lesser General Public License as published by
   the Free Software Foundation, either version 3 of the License, or
   (at your option) any later version.
   
   xtb is distributed in the hope that it will be useful,
   but WITHOUT ANY WARRANTY; without even the implied warranty of
   MERCHANTABILITY or FITNESS FOR A PARTICULAR PURPOSE.  See the
   GNU Lesser General Public License for more details.
   
   Cite this work as:
   * C. Bannwarth, E. Caldeweyher, S. Ehlert, A. Hansen, P. Pracht,
     J. Seibert, S. Spicher, S. Grimme, WIREs Comput. Mol. Sci., 2020,
     e01493. DOI: 10.1002/wcms.1493
   
   for GFN2-xTB:
   * C. Bannwarth, S. Ehlert and S. Grimme., J. Chem. Theory Comput., 2019,
     15, 1652-1671. DOI: 10.1021/acs.jctc.8b01176
   for GFN1-xTB:
   * S. Grimme, C. Bannwarth, P. Shushkov, J. Chem. Theory Comput., 2017,
     13, 1989-2009. DOI: 10.1021/acs.jctc.7b00118
   for GFN0-xTB:
   * P. Pracht, E. Caldeweyher, S. Ehlert, S. Grimme, ChemRxiv, 2019, preprint.
     DOI: 10.26434/chemrxiv.8326202.v1
   for GFN-FF:
   * S. Spicher and S. Grimme, Angew. Chem. Int. Ed., 2020, 59, 15665-15673.
     DOI: 10.1002/anie.202004239
   
   for DFT-D4:
   * E. Caldeweyher, C. Bannwarth and S. Grimme, J. Chem. Phys., 2017,
     147, 034112. DOI: 10.1063/1.4993215
   * E. Caldeweyher, S. Ehlert, A. Hansen, H. Neugebauer, S. Spicher,
     C. Bannwarth and S. Grimme, J. Chem. Phys., 2019, 150, 154122.
     DOI: 10.1063/1.5090222
   * E. Caldeweyher, J.-M. Mewes, S. Ehlert and S. Grimme, Phys. Chem. Chem. Phys.
     2020, 22, 8499-8512. DOI: 10.1039/D0CP00502A
   
   for sTDA-xTB:
   * S. Grimme and C. Bannwarth, J. Chem. Phys., 2016, 145, 054103.
     DOI: 10.1063/1.4959605
   
   in the mass-spec context:
   * V. Asgeirsson, C. Bauer and S. Grimme, Chem. Sci., 2017, 8, 4879.
     DOI: 10.1039/c7sc00601b
   * J. Koopman and S. Grimme, ACS Omega 2019, 4, 12, 15120-15133.
     DOI: 10.1021/acsomega.9b02011
   
   for metadynamics refer to:
   * S. Grimme, J. Chem. Theory Comput., 2019, 155, 2847-2862
     DOI: 10.1021/acs.jctc.9b00143
   
   with help from (in alphabetical order)
   P. Atkinson, C. Bannwarth, F. Bohle, G. Brandenburg, E. Caldeweyher
   M. Checinski, S. Dohm, S. Ehlert, S. Ehrlich, I. Gerasimov, J. Koopman
   C. Lavinge, S. Lehtola, F. März, M. Müller, F. Musil, H. Neugebauer
   J. Pisarek, P. Pracht, J. Seibert, P. Shushkov, S. Spicher, M. Stahn
   T. Strunk, J. Stückrath, T. Rose, and J. Unsleber
   
 * started run on 2022/05/09 at 09:36:02.088     

           -------------------------------------------------
          |                Calculation Setup                |
           -------------------------------------------------

          program call               : /opt/orca/otool_xtb opt+numfreq_XTB.xyz --grad -c -1 -u 0 -P 2 --namespace opt+numfreq
          calculation namespace      : opt+numfreq
          coordinate file            : opt+numfreq_XTB.xyz
          omp threads                :                     2
          number of atoms            :                     6
          number of electrons        :                    22
          charge                     :                    -1
          spin                       :                   0.0
          first test random number   :      0.24449125853449

   ID    Z sym.   atoms
    1    6 C      1
    2    1 H      2-4
    3   53 I      5, 6

molecular fragmentation (1/2 indicates fragments):
111121
# atoms in fragment 1/2:     5     1
 fragment masses (1/2) :      141.94      126.90
CMA distance (Bohr)    :   9.680
constraining FC (au)   :  0.0500
########################################################################
[WARNING] Please study the warnings concerning your input carefully
-1- prog_main_parseArguments: Process number higher than OMP_NUM_THREADS, I hope you know what you are doing.
########################################################################

           -------------------------------------------------
          |                 G F N 2 - x T B                 |
           -------------------------------------------------

        Reference                      10.1021/acs.jctc.8b01176
      * Hamiltonian:
        H0-scaling (s, p, d)           1.850000    2.230000    2.230000
        zeta-weighting                 0.500000
      * Dispersion:
        s8                             2.700000
        a1                             0.520000
        a2                             5.000000
        s9                             5.000000
      * Repulsion:
        kExp                           1.500000    1.000000
        rExp                           1.000000
      * Coulomb:
        alpha                          2.000000
        third order                    shell-resolved
        anisotropic                    true
        a3                             3.000000
        a5                             4.000000
        cn-shift                       1.200000
        cn-exp                         4.000000
        max-rad                        5.000000


          ...................................................
          :                      SETUP                      :
          :.................................................:
          :  # basis functions                  27          :
          :  # atomic orbitals                  25          :
          :  # shells                           11          :
          :  # electrons                        22          :
          :  max. iterations                   250          :
          :  Hamiltonian                  GFN2-xTB          :
          :  restarted?                      false          :
          :  GBSA solvation                  false          :
          :  PC potential                    false          :
          :  electronic temp.          300.0000000     K    :
          :  accuracy                    1.0000000          :
          :  -> integral cutoff          0.2500000E+02      :
          :  -> integral neglect         0.1000000E-07      :
          :  -> SCF convergence          0.1000000E-05 Eh   :
          :  -> wf. convergence          0.1000000E-03 e    :
          :  Broyden damping             0.4000000          :
          ...................................................

 iter      E             dE          RMSdq      gap      omega  full diag
   1    -11.6031169 -0.116031E+02  0.113E+01    3.10       0.0  T
   2    -11.6128570 -0.974008E-02  0.526E+00    2.16       1.0  T
   3    -11.6144712 -0.161420E-02  0.162E+00    1.86       1.0  T
   4    -11.6146642 -0.193019E-03  0.120E+00    2.06       1.0  T
   5    -11.6150822 -0.418001E-03  0.548E-01    2.00       1.0  T
   6    -11.6151548 -0.725609E-04  0.272E-01    1.85       1.0  T
   7    -11.6151511  0.368723E-05  0.279E-01    1.85       1.0  T
   8    -11.6152055 -0.544177E-04  0.216E-02    1.92       1.9  T
   9    -11.6152050  0.470294E-06  0.315E-02    1.93       1.3  T
  10    -11.6152056 -0.615399E-06  0.251E-03    1.92      16.3  T
  11    -11.6152056 -0.296342E-08  0.923E-04    1.92      44.2  T
  12    -11.6152056 -0.743002E-09  0.850E-05    1.92     480.1  T

   *** convergence criteria satisfied after 12 iterations ***

         #    Occupation            Energy/Eh            Energy/eV
      -------------------------------------------------------------
         1        2.0000           -0.6087583             -16.5652
       ...           ...                  ...                  ...
         5        2.0000           -0.3710310             -10.0963
         6        2.0000           -0.3501572              -9.5283
         7        2.0000           -0.2841404              -7.7319
         8        2.0000           -0.2841370              -7.7318
         9        2.0000           -0.1797675              -4.8917
        10        2.0000           -0.1742758              -4.7423
        11        2.0000           -0.1742753              -4.7423 (HOMO)
        12                         -0.1036856              -2.8214 (LUMO)
        13                          0.1591219               4.3299
        14                          0.1591324               4.3302
        15                          0.1843632               5.0168
        16                          0.1843670               5.0169
       ...                                ...                  ...
        25                          0.4615549              12.5595
      -------------------------------------------------------------
                  HL-Gap            0.0705897 Eh            1.9208 eV
             Fermi-level           -0.1389805 Eh           -3.7819 eV

 SCC (total)                   0 d,  0 h,  0 min,  0.011 sec
 SCC setup                      ...        0 min,  0.001 sec ( 14.035%)
 Dispersion                     ...        0 min,  0.000 sec (  0.462%)
 classical contributions        ...        0 min,  0.000 sec (  0.246%)
 integral evaluation            ...        0 min,  0.002 sec ( 15.860%)
 iterations                     ...        0 min,  0.004 sec ( 41.464%)
 molecular gradient             ...        0 min,  0.002 sec ( 17.354%)
 printout                       ...        0 min,  0.001 sec ( 10.058%)

         :::::::::::::::::::::::::::::::::::::::::::::::::::::
         ::                     SUMMARY                     ::
         :::::::::::::::::::::::::::::::::::::::::::::::::::::
         :: total energy             -11.554853678522 Eh    ::
         :: gradient norm              0.000137264810 Eh/a0 ::
         :: HOMO-LUMO gap              1.920843471058 eV    ::
         ::.................................................::
         :: SCC energy               -11.615205633201 Eh    ::
         :: -> isotropic ES            0.140097105228 Eh    ::
         :: -> anisotropic ES         -0.004256280162 Eh    ::
         :: -> anisotropic XC         -0.000634671162 Eh    ::
         :: -> dispersion             -0.003713706897 Eh    ::
         :: repulsion energy           0.060353189536 Eh    ::
         :: add. restraining           0.000000000000 Eh    ::
         :: total charge              -1.000000000000 e     ::
         :::::::::::::::::::::::::::::::::::::::::::::::::::::

           -------------------------------------------------
          |                Property Printout                |
           -------------------------------------------------

    * Orbital Energies and Occupations

         #    Occupation            Energy/Eh            Energy/eV
      -------------------------------------------------------------
         1        2.0000           -0.6087583             -16.5652
         2        2.0000           -0.4745209             -12.9124
         3        2.0000           -0.4436005             -12.0710
         4        2.0000           -0.3710590             -10.0970
         5        2.0000           -0.3710310             -10.0963
         6        2.0000           -0.3501572              -9.5283
         7        2.0000           -0.2841404              -7.7319
         8        2.0000           -0.2841370              -7.7318
         9        2.0000           -0.1797675              -4.8917
        10        2.0000           -0.1742758              -4.7423
        11        2.0000           -0.1742753              -4.7423 (HOMO)
        12                         -0.1036856              -2.8214 (LUMO)
        13                          0.1591219               4.3299
        14                          0.1591324               4.3302
        15                          0.1843632               5.0168
        16                          0.1843670               5.0169
        17                          0.2824816               7.6867
        18                          0.3099479               8.4341
        19                          0.3099719               8.4348
        20                          0.3669470               9.9851
        21                          0.3669503               9.9852
        22                          0.3986798              10.8486
       ...                                ...                  ...
        25                          0.4615549              12.5595
      -------------------------------------------------------------
                  HL-Gap            0.0705897 Eh            1.9208 eV
             Fermi-level           -0.1389805 Eh           -3.7819 eV

     #   Z          covCN         q      C6AA      α(0)
     1   6 C        3.786    -0.020    20.946     6.519
     2   1 H        0.931     0.060     2.194     2.316
     3   1 H        0.931     0.060     2.193     2.316
     4   1 H        0.931     0.060     2.195     2.316
     5  53 I        0.058    -0.885   422.786    35.570
     6  53 I        0.964    -0.276   392.765    34.212

 Mol. C6AA /au·bohr⁶  :       2433.232528
 Mol. C8AA /au·bohr⁸  :     182041.156471
 Mol. α(0) /au        :         83.247984


Wiberg/Mayer (AO) data.
largest (>0.10) Wiberg bond orders for each atom

 ---------------------------------------------------------------------------
     #   Z sym  total        # sym  WBO       # sym  WBO       # sym  WBO
 ---------------------------------------------------------------------------
     1   6 C    3.941 --     4 H    0.999     2 H    0.998     3 H    0.998
                             6 I    0.868
     2   1 H    0.996 --     1 C    0.998
     3   1 H    0.996 --     1 C    0.998
     4   1 H    0.996 --     1 C    0.999
     5  53 I    0.070 --     6  53 I    0.869 --     1 C    0.868
 ---------------------------------------------------------------------------

Topologies differ in total number of bonds
Writing topology from bond orders to xtbtopo.mol

molecular dipole:
                 x           y           z       tot (Debye)
 q only:        0.833      -2.320       0.013
   full:        1.720      -2.202       0.008       7.103
molecular quadrupole (traceless):
                xx          xy          yy          xz          yz          zz
 q only:      -17.853      -1.105       4.623       0.140       0.066      13.230
  q+dip:      -37.925      -1.855      14.823       0.275       0.066      23.102
   full:      -35.449      -1.356      13.619       0.255       0.064      21.830


           -------------------------------------------------
          | TOTAL ENERGY              -11.554853678522 Eh   |
          | GRADIENT NORM               0.000137264810 Eh/α |
          | HOMO-LUMO GAP               1.920843471058 eV   |
           -------------------------------------------------

------------------------------------------------------------------------
 * finished run on 2022/05/09 at 09:36:02.116     
------------------------------------------------------------------------
 total:
 * wall-time:     0 d,  0 h,  0 min,  0.028 sec
 *  cpu-time:     0 d,  0 h,  0 min,  0.040 sec
 * ratio c/w:     1.440 speedup
 SCF:
 * wall-time:     0 d,  0 h,  0 min,  0.011 sec
 *  cpu-time:     0 d,  0 h,  0 min,  0.018 sec
 * ratio c/w:     1.607 speedup


-------------------------   --------------------
FINAL SINGLE POINT ENERGY       -11.554853678520
-------------------------   --------------------

                                *** OPTIMIZATION RUN DONE ***

----------------------------------------------------------------------------
                           ORCA NUMERICAL FREQUENCIES
                              (2-process run)
----------------------------------------------------------------------------

Number of atoms                ... 6
Central differences            ... used
Number of displacements        ... 36
Numerical increment            ... 5.000e-03 bohr
IR-spectrum generation         ... on
Raman-spectrum generation      ... off
Surface Crossing Hessian       ... off
List of participating nodes    ...  opt+numfreq.hostnames

The output will be reduced. Please look at the following files:
SCF program output             ... >opt+numfreq.lastscf
Integral program output        ... >opt+numfreq.lastint
Gradient program output        ... >opt+numfreq.lastgrad
Dipole moment program output   ... >opt+numfreq.lastmom
AutoCI program output          ... >opt+numfreq.lastautoci


         <<< Energy and Gradient at the input geometry >>>

        <<< Energy and Gradient at displaced geometries >>>
             <<<Displacing   1/coordinate 1 (+)>>>
             <<<Displacing   1/coordinate 2 (+)>>>
             <<<Displacing   1/coordinate 1 (-)>>>
             <<<Displacing   1/coordinate 2 (-)>>>
             <<<Displacing   2/coordinate 1 (+)>>>
             <<<Displacing   1/coordinate 3 (+)>>>
             <<<Displacing   2/coordinate 1 (-)>>>
             <<<Displacing   1/coordinate 3 (-)>>>
             <<<Displacing   2/coordinate 2 (+)>>>
             <<<Displacing   2/coordinate 2 (-)>>>
             <<<Displacing   2/coordinate 3 (+)>>>
             <<<Displacing   2/coordinate 3 (-)>>>
             <<<Displacing   3/coordinate 2 (+)>>>
             <<<Displacing   3/coordinate 1 (+)>>>
             <<<Displacing   3/coordinate 2 (-)>>>
             <<<Displacing   3/coordinate 1 (-)>>>
             <<<Displacing   3/coordinate 3 (+)>>>
             <<<Displacing   4/coordinate 1 (+)>>>
             <<<Displacing   3/coordinate 3 (-)>>>
             <<<Displacing   4/coordinate 1 (-)>>>
             <<<Displacing   4/coordinate 2 (+)>>>
             <<<Displacing   4/coordinate 2 (-)>>>
             <<<Displacing   4/coordinate 3 (+)>>>
             <<<Displacing   4/coordinate 3 (-)>>>
             <<<Displacing   5/coordinate 1 (+)>>>
             <<<Displacing   5/coordinate 1 (-)>>>
             <<<Displacing   5/coordinate 2 (+)>>>
             <<<Displacing   5/coordinate 2 (-)>>>
             <<<Displacing   5/coordinate 3 (+)>>>
             <<<Displacing   5/coordinate 3 (-)>>>
             <<<Displacing   6/coordinate 1 (+)>>>
             <<<Displacing   6/coordinate 1 (-)>>>
             <<<Displacing   6/coordinate 2 (+)>>>
             <<<Displacing   6/coordinate 2 (-)>>>
             <<<Displacing   6/coordinate 3 (+)>>>
             <<<Displacing   6/coordinate 3 (-)>>>

-----------------------
VIBRATIONAL FREQUENCIES
-----------------------

Scaling factor for frequencies =  1.000000000 (already applied!)

   0:         0.00 cm**-1
   1:         0.00 cm**-1
   2:         0.00 cm**-1
   3:         0.00 cm**-1
   4:         0.00 cm**-1
   5:         0.00 cm**-1
   6:        82.21 cm**-1
   7:       104.14 cm**-1
   8:       104.23 cm**-1
   9:       421.33 cm**-1
  10:       913.57 cm**-1
  11:       913.65 cm**-1
  12:      1243.37 cm**-1
  13:      1433.29 cm**-1
  14:      1433.69 cm**-1
  15:      3098.19 cm**-1
  16:      3126.51 cm**-1
  17:      3127.06 cm**-1


------------
NORMAL MODES
------------

These modes are the cartesian displacements weighted by the diagonal matrix
M(i,i)=1/sqrt(m[i]) where m[i] is the mass of the displaced atom
Thus, these vectors are normalized but *not* orthogonal

                  0          1          2          3          4          5    
      0       0.000000   0.000000   0.000000   0.000000   0.000000   0.000000
      1       0.000000   0.000000   0.000000   0.000000   0.000000   0.000000
      2       0.000000   0.000000   0.000000   0.000000   0.000000   0.000000
      3       0.000000   0.000000   0.000000   0.000000   0.000000   0.000000
      4       0.000000   0.000000   0.000000   0.000000   0.000000   0.000000
      5       0.000000   0.000000   0.000000   0.000000   0.000000   0.000000
      6       0.000000   0.000000   0.000000   0.000000   0.000000   0.000000
      7       0.000000   0.000000   0.000000   0.000000   0.000000   0.000000
      8       0.000000   0.000000   0.000000   0.000000   0.000000   0.000000
      9       0.000000   0.000000   0.000000   0.000000   0.000000   0.000000
     10       0.000000   0.000000   0.000000   0.000000   0.000000   0.000000
     11       0.000000   0.000000   0.000000   0.000000   0.000000   0.000000
     12       0.000000   0.000000   0.000000   0.000000   0.000000   0.000000
     13       0.000000   0.000000   0.000000   0.000000   0.000000   0.000000
     14       0.000000   0.000000   0.000000   0.000000   0.000000   0.000000
     15       0.000000   0.000000   0.000000   0.000000   0.000000   0.000000
     16       0.000000   0.000000   0.000000   0.000000   0.000000   0.000000
     17       0.000000   0.000000   0.000000   0.000000   0.000000   0.000000
                  6          7          8          9         10         11    
      0      -0.435533  -0.054616   0.019072  -0.672745  -0.011737   0.004595
      1      -0.061909   0.415322  -0.126656  -0.089186   0.089833  -0.030830
      2      -0.000173   0.128055   0.418920   0.003787   0.031179   0.090547
      3      -0.357873  -0.173332   0.180469  -0.407967   0.435186  -0.636365
      4      -0.062954   0.458702  -0.123073  -0.099936  -0.133410  -0.066452
      5       0.007388   0.145186   0.478885   0.037972  -0.111860  -0.177840
      6      -0.358387  -0.144325  -0.153535  -0.413264   0.372391   0.659549
      7      -0.054169   0.462710  -0.169442  -0.062887  -0.175645   0.178691
      8      -0.014403   0.147053   0.480085  -0.054877  -0.039308  -0.151393
      9      -0.364103   0.130610   0.038310  -0.421543  -0.734597  -0.051134
     10      -0.040402   0.500191  -0.140993  -0.001862  -0.242435   0.077084
     11       0.004094   0.146083   0.474859   0.023932  -0.040283  -0.226698
     12       0.472229   0.003162  -0.000922  -0.000308  -0.000031   0.000009
     13       0.063158  -0.021791   0.006668  -0.000051   0.000202  -0.000070
     14      -0.002309  -0.006732  -0.022019  -0.000005   0.000070   0.000205
     15      -0.422425   0.003493  -0.001402   0.073855   0.000562  -0.000222
     16      -0.056047  -0.028811   0.008764   0.009801  -0.004324   0.001484
     17       0.002349  -0.008870  -0.029021  -0.000410  -0.001501  -0.004359
                 12         13         14         15         16         17    
      0       0.085575   0.009262  -0.003471   0.034488  -0.011410   0.003872
      1       0.011422  -0.070258   0.023313   0.004031   0.088813  -0.024778
      2      -0.000431  -0.023566  -0.070870  -0.000578   0.025059   0.089569
      3      -0.563704   0.117578  -0.282024  -0.084722  -0.090860   0.117251
      4       0.056304   0.352865   0.299517  -0.453624  -0.360836   0.527064
      5      -0.099380   0.532627   0.267502   0.343653   0.312915  -0.367449
      6      -0.548055   0.040220   0.302474  -0.136345  -0.094673  -0.200739
      7      -0.049839   0.670031  -0.309021  -0.096492  -0.020055  -0.143497
      8       0.166888  -0.147008  -0.059920  -0.548131  -0.317900  -0.703241
      9      -0.526347  -0.275542   0.023651  -0.214067   0.320974   0.037382
     10      -0.224724  -0.129941  -0.286753   0.498848  -0.675064  -0.088990
     11      -0.058985  -0.086108   0.693004   0.211475  -0.292947   0.005788
     12       0.001079  -0.000004   0.000001   0.000090   0.000004  -0.000001
     13       0.000145   0.000026  -0.000009   0.000012  -0.000025   0.000007
     14      -0.000005   0.000009   0.000027  -0.000000  -0.000007  -0.000025
     15       0.003833   0.000062  -0.000023   0.000102  -0.000000   0.000001
     16       0.000508  -0.000469   0.000155   0.000014   0.000006  -0.000002
     17      -0.000022  -0.000157  -0.000472  -0.000001   0.000002   0.000006


-----------
IR SPECTRUM  
-----------

 Mode    freq (cm**-1)   T**2         TX         TY         TZ
-------------------------------------------------------------------
   6:        82.21    0.000000  (  0.000000   0.000000   0.000000)
   7:       104.14    0.000000  (  0.000000   0.000000   0.000000)
   8:       104.23    0.000000  (  0.000000   0.000000   0.000000)
   9:       421.33    0.000000  (  0.000000   0.000000   0.000000)
  10:       913.57    0.000000  (  0.000000   0.000000   0.000000)
  11:       913.65    0.000000  (  0.000000   0.000000   0.000000)
  12:      1243.37    0.000000  (  0.000000   0.000000   0.000000)
  13:      1433.29    0.000000  (  0.000000   0.000000   0.000000)
  14:      1433.69    0.000000  (  0.000000   0.000000   0.000000)
  15:      3098.19    0.000000  (  0.000000   0.000000   0.000000)
  16:      3126.51    0.000000  (  0.000000   0.000000   0.000000)
  17:      3127.06    0.000000  (  0.000000   0.000000   0.000000)

The first frequency considered to be a vibration is 6
The total number of vibrations considered is 12


--------------------------
THERMOCHEMISTRY AT 298.15K
--------------------------

Temperature         ... 298.15 K
Pressure            ... 1.00 atm
Total Mass          ... 268.84 AMU

Throughout the following assumptions are being made:
  (1) The electronic state is orbitally nondegenerate
  (2) There are no thermally accessible electronically excited states
  (3) Hindered rotations indicated by low frequency modes are not
      treated as such but are treated as vibrations and this may
      cause some error
  (4) All equations used are the standard statistical mechanics
      equations for an ideal gas
  (5) All vibrations are strictly harmonic

freq.      82.21  E(vib)   ...       0.48 
freq.     104.14  E(vib)   ...       0.46 
freq.     104.23  E(vib)   ...       0.46 
freq.     421.33  E(vib)   ...       0.18 
freq.     913.57  E(vib)   ...       0.03 
freq.     913.65  E(vib)   ...       0.03 
freq.    1243.37  E(vib)   ...       0.01 
freq.    1433.29  E(vib)   ...       0.00 
freq.    1433.69  E(vib)   ...       0.00 
freq.    3098.19  E(vib)   ...       0.00 
freq.    3126.51  E(vib)   ...       0.00 
freq.    3127.06  E(vib)   ...       0.00 

------------
INNER ENERGY
------------

The inner energy is: U= E(el) + E(ZPE) + E(vib) + E(rot) + E(trans)
    E(el)   - is the total energy from the electronic structure calculation
              = E(kin-el) + E(nuc-el) + E(el-el) + E(nuc-nuc)
    E(ZPE)  - the the zero temperature vibrational energy from the frequency calculation
    E(vib)  - the the finite temperature correction to E(ZPE) due to population
              of excited vibrational states
    E(rot)  - is the rotational thermal energy
    E(trans)- is the translational thermal energy

Summary of contributions to the inner energy U:
Electronic energy                ...    -11.55485368 Eh
Zero point energy                ...      0.03645347 Eh      22.87 kcal/mol
Thermal vibrational correction   ...      0.00264141 Eh       1.66 kcal/mol
Thermal rotational correction    ...      0.00141627 Eh       0.89 kcal/mol
Thermal translational correction ...      0.00141627 Eh       0.89 kcal/mol
-----------------------------------------------------------------------
Total thermal energy                    -11.51292625 Eh


Summary of corrections to the electronic energy:
(perhaps to be used in another calculation)
Total thermal correction                  0.00547395 Eh       3.43 kcal/mol
Non-thermal (ZPE) correction              0.03645347 Eh      22.87 kcal/mol
-----------------------------------------------------------------------
Total correction                          0.04192743 Eh      26.31 kcal/mol


--------
ENTHALPY
--------

The enthalpy is H = U + kB*T
                kB is Boltzmann's constant
Total free energy                 ...    -11.51292625 Eh 
Thermal Enthalpy correction       ...      0.00094421 Eh       0.59 kcal/mol
-----------------------------------------------------------------------
Total Enthalpy                    ...    -11.51198204 Eh


Note: Only C1 symmetry has been detected, increase convergence thresholds 
      if your molecule has a higher symmetry. Symmetry factor of 1.0 is   
      used for the rotational entropy correction. 
 

Note: Rotational entropy computed according to Herzberg 
Infrared and Raman Spectra, Chapter V,1, Van Nostrand Reinhold, 1945 
Point Group:  C1, Symmetry Number:   1  
Rotational constants in cm-1:     5.250337     0.009219     0.009219 

Vibrational entropy computed according to the QRRHO of S. Grimme
Chem.Eur.J. 2012 18 9955


-------
ENTROPY
-------

The entropy contributions are T*S = T*(S(el)+S(vib)+S(rot)+S(trans))
     S(el)   - electronic entropy
     S(vib)  - vibrational entropy
     S(rot)  - rotational entropy
     S(trans)- translational entropy
The entropies will be listed as mutliplied by the temperature to get
units of energy

Electronic entropy                ...      0.00000000 Eh      0.00 kcal/mol
Vibrational entropy               ...      0.00510828 Eh      3.21 kcal/mol
Rotational entropy                ...      0.01315284 Eh      8.25 kcal/mol
Translational entropy             ...      0.02027183 Eh     12.72 kcal/mol
-----------------------------------------------------------------------
Final entropy term                ...      0.03853294 Eh     24.18 kcal/mol

In case the symmetry of your molecule has not been determined correctly
or in case you have a reason to use a different symmetry number we print 
out the resulting rotational entropy values for sn=1,12 :
 --------------------------------------------------------
|  sn= 1 | S(rot)=       0.01315284 Eh      8.25 kcal/mol|
|  sn= 2 | S(rot)=       0.01249838 Eh      7.84 kcal/mol|
|  sn= 3 | S(rot)=       0.01211555 Eh      7.60 kcal/mol|
|  sn= 4 | S(rot)=       0.01184392 Eh      7.43 kcal/mol|
|  sn= 5 | S(rot)=       0.01163324 Eh      7.30 kcal/mol|
|  sn= 6 | S(rot)=       0.01146109 Eh      7.19 kcal/mol|
|  sn= 7 | S(rot)=       0.01131554 Eh      7.10 kcal/mol|
|  sn= 8 | S(rot)=       0.01118947 Eh      7.02 kcal/mol|
|  sn= 9 | S(rot)=       0.01107826 Eh      6.95 kcal/mol|
|  sn=10 | S(rot)=       0.01097878 Eh      6.89 kcal/mol|
|  sn=11 | S(rot)=       0.01088879 Eh      6.83 kcal/mol|
|  sn=12 | S(rot)=       0.01080663 Eh      6.78 kcal/mol|
 --------------------------------------------------------


-------------------
GIBBS FREE ENERGY
-------------------

The Gibbs free energy is G = H - T*S

Total enthalpy                    ...    -11.51198204 Eh 
Total entropy correction          ...     -0.03853294 Eh    -24.18 kcal/mol
-----------------------------------------------------------------------
Final Gibbs free energy         ...    -11.55051499 Eh

For completeness - the Gibbs free energy minus the electronic energy
G-E(el)                           ...      0.00433869 Eh      2.72 kcal/mol


Total Time for Numerical Frequencies  :        29.198 sec

Timings for individual modules:

Sum of individual times         ...        0.215 sec (=   0.004 min)
Geometry relaxation             ...        0.069 sec (=   0.001 min)  32.0 %
XTB module                      ...        0.147 sec (=   0.002 min)  68.0 %
                             ****ORCA TERMINATED NORMALLY****
TOTAL RUN TIME: 0 days 0 hours 0 minutes 30 seconds 919 msec
