
                                 *****************
                                 * O   R   C   A *
                                 *****************

           --- An Ab Initio, DFT and Semiempirical electronic structure package ---

                  #######################################################
                  #                        -***-                        #
                  #          Department of theory and spectroscopy      #
                  #               Directorship: Frank Neese             #
                  #        Max Planck Institute fuer Kohlenforschung    #
                  #                Kaiser Wilhelm Platz 1               #
                  #                 D-45470 Muelheim/Ruhr               #
                  #                      Germany                        #
                  #                                                     #
                  #                  All rights reserved                #
                  #                        -***-                        #
                  #######################################################


                         Program Version 4.2.1 -  RELEASE  -


 With contributions from (in alphabetic order):
   Daniel Aravena         : Magnetic Suceptibility
   Michael Atanasov       : Ab Initio Ligand Field Theory (pilot matlab implementation)
   Alexander A. Auer      : GIAO ZORA, VPT2
   Ute Becker             : Parallelization
   Giovanni Bistoni       : ED, misc. LED, open-shell LED, HFLD
   Martin Brehm           : Molecular dynamics
   Dmytro Bykov           : SCF Hessian
   Vijay G. Chilkuri      : MRCI spin determinant printing, contributions to CSF-ICE
   Dipayan Datta          : RHF DLPNO-CCSD density
   Achintya Kumar Dutta   : EOM-CC, STEOM-CC
   Dmitry Ganyushin       : Spin-Orbit,Spin-Spin,Magnetic field MRCI
   Miquel Garcia          : C-PCM Hessian, Gaussian charge scheme
   Yang Guo               : DLPNO-NEVPT2, CIM, IAO-localization
   Andreas Hansen         : Spin unrestricted coupled pair/coupled cluster methods
   Benjamin Helmich-Paris : CASSCF linear response (MC-RPA)
   Lee Huntington         : MR-EOM, pCC
   Robert Izsak           : Overlap fitted RIJCOSX, COSX-SCS-MP3, EOM
   Christian Kollmar      : KDIIS, OOCD, Brueckner-CCSD(T), CCSD density
   Simone Kossmann        : Meta GGA functionals, TD-DFT gradient, OOMP2, MP2 Hessian
   Martin Krupicka        : AUTO-CI
   Lucas Lang             : DCDCAS
   Dagmar Lenk            : GEPOL surface, SMD
   Dimitrios Liakos       : Extrapolation schemes; Compound Job, initial MDCI parallelization
   Dimitrios Manganas     : Further ROCIS development; embedding schemes
   Dimitrios Pantazis     : SARC Basis sets
   Taras Petrenko         : DFT Hessian,TD-DFT gradient, ASA, ECA, R-Raman, ABS, FL, XAS/XES, NRVS
   Peter Pinski           : DLPNO-MP2, DLPNO-MP2 Gradient
   Christoph Reimann      : Effective Core Potentials
   Marius Retegan         : Local ZFS, SOC
   Christoph Riplinger    : Optimizer, TS searches, QM/MM, DLPNO-CCSD(T), (RO)-DLPNO pert. Triples
   Tobias Risthaus        : Range-separated hybrids, TD-DFT gradient, RPA, STAB
   Michael Roemelt        : Original ROCIS implementation
   Masaaki Saitow         : Open-shell DLPNO-CCSD energy and density
   Barbara Sandhoefer     : DKH picture change effects
   Avijit Sen             : IP-ROCIS
   Kantharuban Sivalingam : CASSCF convergence, NEVPT2, FIC-MRCI
   Bernardo de Souza      : ESD, SOC TD-DFT
   Georgi Stoychev        : AutoAux, RI-MP2 NMR
   Willem Van den Heuvel  : Paramagnetic NMR
   Boris Wezisla          : Elementary symmetry handling
   Frank Wennmohs         : Technical directorship


 We gratefully acknowledge several colleagues who have allowed us to
 interface, adapt or use parts of their codes:
   Stefan Grimme, W. Hujo, H. Kruse,             : VdW corrections, initial TS optimization,
                  C. Bannwarth                     DFT functionals, gCP, sTDA/sTD-DF
   Ed Valeev, F. Pavosevic, A. Kumar             : LibInt (2-el integral package), F12 methods
   Garnet Chan, S. Sharma, J. Yang, R. Olivares  : DMRG
   Ulf Ekstrom                                   : XCFun DFT Library
   Mihaly Kallay                                 : mrcc  (arbitrary order and MRCC methods)
   Andreas Klamt, Michael Diedenhofen            : otool_cosmo (COSMO solvation model)
   Jiri Pittner, Ondrej Demel                    : Mk-CCSD
   Frank Weinhold                                : gennbo (NPA and NBO analysis)
   Christopher J. Cramer and Donald G. Truhlar   : smd solvation model
   Lars Goerigk                                  : TD-DFT with DH, B97 family of functionals
   V. Asgeirsson, H. Jonsson                     : NEB implementation
   FAccTs GmbH                                   : IRC, NEB, NEB-TS, Multilevel, MM, QM/MM, CI optimization
   S Lehtola, MJT Oliveira, MAL Marques          : LibXC Library


 Your calculation uses the libint2 library for the computation of 2-el integrals
 For citations please refer to: http://libint.valeyev.net

 Your ORCA version has been built with support for libXC version: 4.2.3
 For citations please refer to: https://tddft.org/programs/libxc/

 This ORCA versions uses:
   CBLAS   interface :  Fast vector & matrix operations
   LAPACKE interface :  Fast linear algebra routines
   SCALAPACK package :  Parallel linear algebra routines




***************************************
The coordinates will be read from file: init.xyz
***************************************


Your calculation utilizes the semiempirical GFN2-xTB method
Please cite in your paper:
C. Bannwarth, Ehlert S., S. Grimme,  J. Chem. Theory Comput., 15, (2019), 1652.
   

----- Orbital basis set information -----
Your calculation utilizes the basis: def2-SVP
   F. Weigend and R. Ahlrichs, Phys. Chem. Chem. Phys. 7, 3297 (2005).

cite the ECPs for I  [Def2-ECP] as follows:
Ce-Yb(ecp-28): M. Dolg, H. Stoll, H.Preuss, J. Chem. Phys., 1989, 90, 1730-1734.
Y-Cd(ecp-28), Hf-Hg(ecp-46): D. Andrae,U. Haeussermann, M. Dolg, H. Stoll, H. Preuss, Theor. Chim. Acta, 1990, 77, 123-141.
In-Sb(ecp-28), Tl-Bi(ecp-46): B. Metz, H. Stoll, M. Dolg, J. Chem. Phys., 2000, 113, 2563-2569.
Te-Xe(ecp-28), Po-Rn(ecp-46): K. A. Peterson, D. Figgen, E. Goll, H. Stoll, M. Dolg, J. Chem. Phys., 2003, 119, 11113-11123.
Rb(ecp-28), Cs(ecp-46): T. Leininger, A. Nicklass, W. Kuechle, H. Stoll, M. Dolg, A. Bergner, Chem. Phys. Lett., 1996, 255, 274-280.
Sr(ecp-28), Ba(ecp-46): M. Kaupp, P. V. Schleyer, H. Stoll and H. Preuss, J. Chem. Phys., 1991, 94, 1360-1366.
La(ecp-46): M. Dolg, H. Stoll, A. Savin, H. Preuss, Theor. Chim. Acta, 1989, 75, 173-194.
Lu(ecp-28): X. Cao, M. Dolg, J. Chem. Phys., 2001, 115, 7348-7355.

ECP parameters for I  [Def2-ECP] have been obtained from:
TURBOMOLE (7.0.2)

================================================================================
                                        WARNINGS
                       Please study these warnings very carefully!
================================================================================


WARNING: The environment variable RSH_COMMAND is not set!
  ===> : All Displacements for the Numerical Hessian calculation
         will be started on localhost

WARNING: Geometry Optimization
  ===> : Switching off AutoStart
         For restart on a previous wavefunction, please use MOREAD

WARNING: Found dipole moment calculation with XTB calculation
  ===> : Switching off dipole moment calculation


INFO   : the flag for use of LIBINT has been found!

================================================================================
                                       INPUT FILE
================================================================================
NAME = opt+numfreq.inp
|  1> ! xTB2 Opt NumFreq
|  2> 
|  3> *xyzfile -1 1 init.xyz
|  4> 
|  5> %pal
|  6>  nprocs 2
|  7> end
|  8> 
|  9>                          ****END OF INPUT****
================================================================================

                       *****************************
                       * Geometry Optimization Run *
                       *****************************

Geometry optimization settings:
Update method            Update   .... BFGS
Choice of coordinates    CoordSys .... Z-matrix Internals
Initial Hessian          InHess   .... Almoef's Model

Convergence Tolerances:
Energy Change            TolE     ....  5.0000e-06 Eh
Max. Gradient            TolMAXG  ....  3.0000e-04 Eh/bohr
RMS Gradient             TolRMSG  ....  1.0000e-04 Eh/bohr
Max. Displacement        TolMAXD  ....  4.0000e-03 bohr
RMS Displacement         TolRMSD  ....  2.0000e-03 bohr
Strict Convergence                ....  False
------------------------------------------------------------------------------
                        ORCA OPTIMIZATION COORDINATE SETUP
------------------------------------------------------------------------------

The optimization will be done in new redundant internal coordinates
Making redundant internal coordinates   ...  (new redundants) done
Evaluating the initial hessian          ...  (Almloef) done
Evaluating the coordinates              ...  done
Calculating the B-matrix                .... done
Calculating the G-matrix                .... done
Diagonalizing the G-matrix              .... done
The first mode is                       ....   38
The number of degrees of freedom        ....   12

    -----------------------------------------------------------------
                    Redundant Internal Coordinates


    -----------------------------------------------------------------
         Definition                    Initial Value    Approx d2E/dq
    -----------------------------------------------------------------
      1. B(H   1,C   0)                  1.0700         0.387556   
      2. B(H   2,C   0)                  1.0700         0.387561   
      3. B(H   3,C   0)                  1.0700         0.387554   
      4. B(I   4,H   2)                  1.7473         0.108203   
      5. B(I   4,H   1)                  1.7473         0.108203   
      6. B(I   4,H   3)                  1.7473         0.108200   
      7. B(I   4,C   0)                  1.0700         6.804090   
      8. B(I   5,H   2)                  2.7455         0.002764   
      9. B(I   5,H   1)                  2.7371         0.002852   
     10. B(I   5,H   3)                  2.7039         0.003221   
     11. B(I   5,C   0)                  2.8922         0.008426   
     12. A(H   2,C   0,H   3)          109.4713         0.297666   
     13. A(H   1,C   0,H   2)          109.4717         0.297666   
     14. A(H   2,C   0,I   5)           71.4256         0.199046   
     15. A(H   3,C   0,I   5)           69.1967         0.199046   
     16. A(H   1,C   0,I   5)           70.9728         0.199046   
     17. A(H   3,C   0,I   4)          109.4714         0.589689   
     18. A(H   1,C   0,I   4)          109.4709         0.589689   
     19. A(H   1,C   0,H   3)          109.4710         0.297666   
     20. A(H   2,C   0,I   4)          109.4710         0.589691   
     21. A(C   0,H   1,I   4)           35.2646         0.263695   
     22. A(C   0,H   2,I   4)           35.2646         0.263696   
     23. A(C   0,H   3,I   4)           35.2643         0.263694   
     24. A(H   2,I   4,H   3)           59.9999         0.235254   
     25. A(H   1,I   4,H   3)           59.9999         0.235254   
     26. A(C   0,I   4,H   3)           35.2643         0.508175   
     27. A(H   1,I   4,H   2)           60.0002         0.235255   
     28. A(C   0,I   4,H   2)           35.2644         0.508178   
     29. A(C   0,I   4,H   1)           35.2645         0.508177   
     30. D(I   4,H   1,C   0,H   2)    119.9999         0.171029   
     31. D(I   4,H   1,C   0,I   5)   -178.6408         0.171029   
     32. D(I   4,H   1,C   0,H   3)   -119.9998         0.171029   
     33. D(I   4,H   2,C   0,I   5)    178.9215         0.171034   
     34. D(I   4,H   2,C   0,H   3)    120.0002         0.171034   
     35. D(I   4,H   2,C   0,H   1)   -119.9998         0.171034   
     36. D(I   4,H   3,C   0,I   5)    179.7191         0.171027   
     37. D(I   4,H   3,C   0,H   2)   -120.0000         0.171027   
     38. D(I   4,H   3,C   0,H   1)    119.9995         0.171027   
     39. D(H   3,I   4,C   0,H   1)   -119.9996         1.398317   
     40. D(H   2,I   4,C   0,H   3)   -120.0001         1.398317   
     41. D(H   2,I   4,C   0,H   1)    120.0003         1.398317   
     42. D(H   1,I   4,C   0,H   3)    119.9996         1.398317   
     43. D(H   3,I   4,C   0,H   2)    120.0001         1.398317   
     44. D(H   1,I   4,H   3,C   0)    -35.2647         0.002682   
     45. D(H   1,I   4,C   0,H   2)   -120.0003         1.398317   
     46. D(H   3,I   4,H   2,C   0)    -35.2643         0.002682   
     47. D(H   1,I   4,H   2,C   0)     35.2643         0.002682   
     48. D(H   3,I   4,H   1,C   0)     35.2645         0.002682   
     49. D(H   2,I   4,H   3,C   0)     35.2643         0.002682   
     50. D(H   2,I   4,H   1,C   0)    -35.2642         0.002682   
    -----------------------------------------------------------------

Number of atoms                         .... 6
Number of degrees of freedom            .... 50

         *************************************************************
         *                GEOMETRY OPTIMIZATION CYCLE   1            *
         *************************************************************
      -----------------------------------------------------------      
     |                   =====================                   |     
     |                           x T B                           |     
     |                   =====================                   |     
     |                         S. Grimme                         |     
     |          Mulliken Center for Theoretical Chemistry        |     
     |                    University of Bonn                     |     
      -----------------------------------------------------------      

   * xtb version 6.4.0 (d4b70c2) compiled by 'ehlert@majestix' on 2021-02-01

   xtb is free software: you can redistribute it and/or modify it under
   the terms of the GNU Lesser General Public License as published by
   the Free Software Foundation, either version 3 of the License, or
   (at your option) any later version.
   
   xtb is distributed in the hope that it will be useful,
   but WITHOUT ANY WARRANTY; without even the implied warranty of
   MERCHANTABILITY or FITNESS FOR A PARTICULAR PURPOSE.  See the
   GNU Lesser General Public License for more details.
   
   Cite this work as:
   * C. Bannwarth, E. Caldeweyher, S. Ehlert, A. Hansen, P. Pracht,
     J. Seibert, S. Spicher, S. Grimme, WIREs Comput. Mol. Sci., 2020,
     e01493. DOI: 10.1002/wcms.1493
   
   for GFN2-xTB:
   * C. Bannwarth, S. Ehlert and S. Grimme., J. Chem. Theory Comput., 2019,
     15, 1652-1671. DOI: 10.1021/acs.jctc.8b01176
   for GFN1-xTB:
   * S. Grimme, C. Bannwarth, P. Shushkov, J. Chem. Theory Comput., 2017,
     13, 1989-2009. DOI: 10.1021/acs.jctc.7b00118
   for GFN0-xTB:
   * P. Pracht, E. Caldeweyher, S. Ehlert, S. Grimme, ChemRxiv, 2019, preprint.
     DOI: 10.26434/chemrxiv.8326202.v1
   for GFN-FF:
   * S. Spicher and S. Grimme, Angew. Chem. Int. Ed., 2020, 59, 15665-15673.
     DOI: 10.1002/anie.202004239
   
   for DFT-D4:
   * E. Caldeweyher, C. Bannwarth and S. Grimme, J. Chem. Phys., 2017,
     147, 034112. DOI: 10.1063/1.4993215
   * E. Caldeweyher, S. Ehlert, A. Hansen, H. Neugebauer, S. Spicher,
     C. Bannwarth and S. Grimme, J. Chem. Phys., 2019, 150, 154122.
     DOI: 10.1063/1.5090222
   * E. Caldeweyher, J.-M. Mewes, S. Ehlert and S. Grimme, Phys. Chem. Chem. Phys.
     2020, 22, 8499-8512. DOI: 10.1039/D0CP00502A
   
   for sTDA-xTB:
   * S. Grimme and C. Bannwarth, J. Chem. Phys., 2016, 145, 054103.
     DOI: 10.1063/1.4959605
   
   in the mass-spec context:
   * V. Asgeirsson, C. Bauer and S. Grimme, Chem. Sci., 2017, 8, 4879.
     DOI: 10.1039/c7sc00601b
   * J. Koopman and S. Grimme, ACS Omega 2019, 4, 12, 15120-15133.
     DOI: 10.1021/acsomega.9b02011
   
   for metadynamics refer to:
   * S. Grimme, J. Chem. Theory Comput., 2019, 155, 2847-2862
     DOI: 10.1021/acs.jctc.9b00143
   
   with help from (in alphabetical order)
   P. Atkinson, C. Bannwarth, F. Bohle, G. Brandenburg, E. Caldeweyher
   M. Checinski, S. Dohm, S. Ehlert, S. Ehrlich, I. Gerasimov, J. Koopman
   C. Lavinge, S. Lehtola, F. März, M. Müller, F. Musil, H. Neugebauer
   J. Pisarek, P. Pracht, J. Seibert, P. Shushkov, S. Spicher, M. Stahn
   T. Strunk, J. Stückrath, T. Rose, and J. Unsleber
   
 * started run on 2022/05/09 at 08:55:15.077     

           -------------------------------------------------
          |                Calculation Setup                |
           -------------------------------------------------

          program call               : /opt/orca/otool_xtb opt+numfreq_XTB.xyz --grad -c -1 -u 0 -P 2 --namespace opt+numfreq
          calculation namespace      : opt+numfreq
          coordinate file            : opt+numfreq_XTB.xyz
          omp threads                :                     2
          number of atoms            :                     6
          number of electrons        :                    22
          charge                     :                    -1
          spin                       :                   0.0
          first test random number   :      0.62890409233833

   ID    Z sym.   atoms
    1    6 C      1
    2    1 H      2-4
    3   53 I      5, 6

molecular fragmentation (1/2 indicates fragments):
111112
# atoms in fragment 1/2:     5     1
 fragment masses (1/2) :      141.94      126.90
CMA distance (Bohr)    :   7.258
constraining FC (au)   :  0.0500
########################################################################
[WARNING] Please study the warnings concerning your input carefully
-1- prog_main_parseArguments: Process number higher than OMP_NUM_THREADS, I hope you know what you are doing.
########################################################################

           -------------------------------------------------
          |                 G F N 2 - x T B                 |
           -------------------------------------------------

        Reference                      10.1021/acs.jctc.8b01176
      * Hamiltonian:
        H0-scaling (s, p, d)           1.850000    2.230000    2.230000
        zeta-weighting                 0.500000
      * Dispersion:
        s8                             2.700000
        a1                             0.520000
        a2                             5.000000
        s9                             5.000000
      * Repulsion:
        kExp                           1.500000    1.000000
        rExp                           1.000000
      * Coulomb:
        alpha                          2.000000
        third order                    shell-resolved
        anisotropic                    true
        a3                             3.000000
        a5                             4.000000
        cn-shift                       1.200000
        cn-exp                         4.000000
        max-rad                        5.000000


          ...................................................
          :                      SETUP                      :
          :.................................................:
          :  # basis functions                  27          :
          :  # atomic orbitals                  25          :
          :  # shells                           11          :
          :  # electrons                        22          :
          :  max. iterations                   250          :
          :  Hamiltonian                  GFN2-xTB          :
          :  restarted?                      false          :
          :  GBSA solvation                  false          :
          :  PC potential                    false          :
          :  electronic temp.          300.0000000     K    :
          :  accuracy                    1.0000000          :
          :  -> integral cutoff          0.2500000E+02      :
          :  -> integral neglect         0.1000000E-07      :
          :  -> SCF convergence          0.1000000E-05 Eh   :
          :  -> wf. convergence          0.1000000E-03 e    :
          :  Broyden damping             0.4000000          :
          ...................................................

 iter      E             dE          RMSdq      gap      omega  full diag
   1    -11.1897353 -0.111897E+02  0.147E+01    6.50       0.0  T
   2    -11.2471015 -0.573662E-01  0.119E+01    6.62       1.0  T
   3    -11.2611367 -0.140351E-01  0.590E+00    6.10       1.0  T
   4    -11.2661259 -0.498925E-02  0.315E+00    5.64       1.0  T
   5    -11.2667098 -0.583882E-03  0.127E+00    5.66       1.0  T
   6    -11.2669103 -0.200511E-03  0.451E-01    5.40       1.0  T
   7    -11.2670547 -0.144406E-03  0.138E-01    5.45       1.0  T
   8    -11.2670583 -0.355105E-05  0.873E-02    5.48       1.0  T
   9    -11.2670615 -0.316537E-05  0.426E-02    5.46       1.0  T
  10    -11.2670615 -0.495228E-07  0.135E-03    5.46      30.2  T
  11    -11.2670615 -0.172169E-08  0.621E-04    5.46      65.7  T
  12    -11.2670615 -0.403844E-09  0.109E-04    5.46     372.9  T

   *** convergence criteria satisfied after 12 iterations ***

         #    Occupation            Energy/Eh            Energy/eV
      -------------------------------------------------------------
         1        2.0000           -0.6189772             -16.8432
       ...           ...                  ...                  ...
         5        2.0000           -0.4036574             -10.9841
         6        2.0000           -0.2594182              -7.0591
         7        2.0000           -0.1839505              -5.0055
         8        2.0000           -0.1838165              -5.0019
         9        2.0000           -0.1630951              -4.4380
        10        2.0000           -0.1627507              -4.4287
        11        2.0000           -0.1521816              -4.1411 (HOMO)
        12                          0.0486328               1.3234 (LUMO)
        13                          0.0882814               2.4023
        14                          0.0883142               2.4032
        15                          0.3346900               9.1074
        16                          0.3377247               9.1900
       ...                                ...                  ...
        25                          4.1711961             113.5040
      -------------------------------------------------------------
                  HL-Gap            0.2008144 Eh            5.4644 eV
             Fermi-level           -0.0517744 Eh           -1.4089 eV

 SCC (total)                   0 d,  0 h,  0 min,  0.012 sec
 SCC setup                      ...        0 min,  0.000 sec (  1.309%)
 Dispersion                     ...        0 min,  0.000 sec (  0.340%)
 classical contributions        ...        0 min,  0.000 sec (  0.166%)
 integral evaluation            ...        0 min,  0.001 sec ( 11.044%)
 iterations                     ...        0 min,  0.006 sec ( 53.172%)
 molecular gradient             ...        0 min,  0.003 sec ( 21.019%)
 printout                       ...        0 min,  0.001 sec ( 11.094%)

         :::::::::::::::::::::::::::::::::::::::::::::::::::::
         ::                     SUMMARY                     ::
         :::::::::::::::::::::::::::::::::::::::::::::::::::::
         :: total energy              -6.012596709524 Eh    ::
         :: gradient norm             21.661922427214 Eh/a0 ::
         :: HOMO-LUMO gap              5.464436905598 eV    ::
         ::.................................................::
         :: SCC energy               -11.267061503834 Eh    ::
         :: -> isotropic ES            0.159627437331 Eh    ::
         :: -> anisotropic ES         -0.021259359824 Eh    ::
         :: -> anisotropic XC         -0.132958561052 Eh    ::
         :: -> dispersion             -0.004704406749 Eh    ::
         :: repulsion energy           5.254464784903 Eh    ::
         :: add. restraining           0.000000000000 Eh    ::
         :: total charge              -1.000000000000 e     ::
         :::::::::::::::::::::::::::::::::::::::::::::::::::::

           -------------------------------------------------
          |                Property Printout                |
           -------------------------------------------------

    * Orbital Energies and Occupations

         #    Occupation            Energy/Eh            Energy/eV
      -------------------------------------------------------------
         1        2.0000           -0.6189772             -16.8432
         2        2.0000           -0.4679664             -12.7340
         3        2.0000           -0.4257920             -11.5864
         4        2.0000           -0.4039344             -10.9916
         5        2.0000           -0.4036574             -10.9841
         6        2.0000           -0.2594182              -7.0591
         7        2.0000           -0.1839505              -5.0055
         8        2.0000           -0.1838165              -5.0019
         9        2.0000           -0.1630951              -4.4380
        10        2.0000           -0.1627507              -4.4287
        11        2.0000           -0.1521816              -4.1411 (HOMO)
        12                          0.0486328               1.3234 (LUMO)
        13                          0.0882814               2.4023
        14                          0.0883142               2.4032
        15                          0.3346900               9.1074
        16                          0.3377247               9.1900
        17                          0.3503479               9.5335
        18                          0.3838827              10.4460
        19                          0.3839783              10.4486
        20                          0.4449068              12.1065
        21                          0.5761831              15.6787
        22                          0.5796332              15.7726
       ...                                ...                  ...
        25                          4.1711961             113.5040
      -------------------------------------------------------------
                  HL-Gap            0.2008144 Eh            5.4644 eV
             Fermi-level           -0.0517744 Eh           -1.4089 eV

     #   Z          covCN         q      C6AA      α(0)
     1   6 C        4.039    -0.035    21.123     6.528
     2   1 H        1.830     0.006     2.940     2.677
     3   1 H        1.829     0.005     2.957     2.684
     4   1 H        1.832     0.010     2.872     2.646
     5  53 I        3.753    -0.013   372.857    33.333
     6  53 I        0.397    -0.973   435.894    36.097

 Mol. C6AA /au·bohr⁶  :       2483.734807
 Mol. C8AA /au·bohr⁸  :     182576.686614
 Mol. α(0) /au        :         83.965782


Wiberg/Mayer (AO) data.
largest (>0.10) Wiberg bond orders for each atom

 ---------------------------------------------------------------------------
     #   Z sym  total        # sym  WBO       # sym  WBO       # sym  WBO
 ---------------------------------------------------------------------------
     1   6 C    3.805 --     5 I    1.241     3 H    0.860     2 H    0.860
                             4 H    0.860
     2   1 H    1.000 --     1 C    0.860     5 I    0.140
     3   1 H    1.000 --     1 C    0.860     5 I    0.140
     4   1 H    1.000 --     1 C    0.860     5 I    0.140
     5  53 I    1.660 --     1 C    1.241     4 H    0.140     2 H    0.140
                             3 H    0.140
     6  53 I   -0.035 -- ---------------------------------------------------------------------------

Topologies differ in total number of bonds
Writing topology from bond orders to xtbtopo.mol

molecular dipole:
                 x           y           z       tot (Debye)
 q only:        7.945      -1.342      -0.004
   full:        3.875      -1.837       0.048      10.900
molecular quadrupole (traceless):
                xx          xy          yy          xz          yz          zz
 q only:      -63.473      15.683      30.371       0.023      -0.006      33.102
  q+dip:      -61.909       1.029      27.806       0.200       0.203      34.103
   full:      -59.399       1.524      26.582       0.174       0.199      32.816


           -------------------------------------------------
          | TOTAL ENERGY               -6.012596709524 Eh   |
          | GRADIENT NORM              21.661922427214 Eh/α |
          | HOMO-LUMO GAP               5.464436905598 eV   |
           -------------------------------------------------

------------------------------------------------------------------------
 * finished run on 2022/05/09 at 08:55:15.128     
------------------------------------------------------------------------
 total:
 * wall-time:     0 d,  0 h,  0 min,  0.051 sec
 *  cpu-time:     0 d,  0 h,  0 min,  0.061 sec
 * ratio c/w:     1.191 speedup
 SCF:
 * wall-time:     0 d,  0 h,  0 min,  0.014 sec
 *  cpu-time:     0 d,  0 h,  0 min,  0.021 sec
 * ratio c/w:     1.529 speedup


-------------------------   --------------------
FINAL SINGLE POINT ENERGY        -6.012596709520
-------------------------   --------------------

------------------------------------------------------------------------------
                         ORCA GEOMETRY RELAXATION STEP
------------------------------------------------------------------------------

Reading the OPT-File                    .... done
Getting information on internals        .... done
Copying old internal coords+grads       .... done
Making the new internal coordinates     .... (new redundants).... done
Validating the new internal coordinates .... (new redundants).... done
Calculating the B-matrix                .... done
Calculating the G,G- and P matrices     .... done
Transforming gradient to internals      .... done
Projecting the internal gradient        .... done
Number of atoms                         ....   6
Number of internal coordinates          ....  50
Current Energy                          ....    -6.012596710 Eh
Current gradient norm                   ....    21.661922427 Eh/bohr
Maximum allowed component of the step   ....  0.300
Current trust radius                    ....  0.300
Evaluating the initial hessian          ....  (Almloef) done
Projecting the Hessian                  .... done
Forming the augmented Hessian           .... done
Diagonalizing the augmented Hessian     .... done
Last element of RFO vector              ....  0.755090797
Lowest eigenvalues of augmented Hessian:
 -8.157369985  0.004499307  0.062434797  0.063122507  0.207982069
Length of the computed step             ....  0.868266750
Warning: the length of the step is outside the trust region - taking restricted step instead
The input lambda is                     ....    -8.157370
   iter:   1  x=  -12.920662  g=    0.139376 f(x)=     0.663887
   iter:   2  x=  -18.782955  g=    0.046643 f(x)=     0.273434
   iter:   3  x=  -24.477319  g=    0.017896 f(x)=     0.101904
   iter:   4  x=  -27.855409  g=    0.008830 f(x)=     0.029827
   iter:   5  x=  -28.623412  g=    0.006210 f(x)=     0.004769
   iter:   6  x=  -28.653629  g=    0.005764 f(x)=     0.000174
   iter:   7  x=  -28.653673  g=    0.005747 f(x)=     0.000000
   iter:   8  x=  -28.653673  g=    0.005747 f(x)=     0.000000
   iter:   9  x=  -28.653673  g=    0.005747 f(x)=     0.000000
The output lambda is                    ....   -28.653673 (9 iterations)
The final length of the internal step   ....  0.300000000
Converting the step to cartesian space:
 Initial RMS(Int)=    0.0424264069
Transforming coordinates:
 Iter   0:  RMS(Cart)=    0.0352900504 RMS(Int)=    0.0425179702
 Iter   1:  RMS(Cart)=    0.0006084230 RMS(Int)=    0.0004964747
 Iter   2:  RMS(Cart)=    0.0000057304 RMS(Int)=    0.0000067143
 Iter   3:  RMS(Cart)=    0.0000001204 RMS(Int)=    0.0000001035
 Iter   4:  RMS(Cart)=    0.0000000023 RMS(Int)=    0.0000000030
done
Storing new coordinates                 .... done

                                .--------------------.
          ----------------------|Geometry convergence|-------------------------
          Item                value                   Tolerance       Converged
          ---------------------------------------------------------------------
          RMS gradient        1.3287666948            0.0001000000      NO
          MAX gradient        5.7366664639            0.0003000000      NO
          RMS step            0.0424264069            0.0020000000      NO
          MAX step            0.1831554976            0.0040000000      NO
          ........................................................
          Max(Bonds)      0.0969      Max(Angles)    2.82
          Max(Dihed)        1.33      Max(Improp)    0.00
          ---------------------------------------------------------------------

The optimization has not yet converged - more geometry cycles are needed


    ---------------------------------------------------------------------------
                         Redundant Internal Coordinates
                            (Angstroem and degrees)

        Definition                    Value    dE/dq     Step     New-Value
    ----------------------------------------------------------------------------
     1. B(H   1,C   0)                1.0700  1.365233 -0.0228    1.0472   
     2. B(H   2,C   0)                1.0700  1.366025 -0.0228    1.0471   
     3. B(H   3,C   0)                1.0700  1.361770 -0.0228    1.0472   
     4. B(I   4,H   2)                1.7473 -2.873014  0.0488    1.7961   
     5. B(I   4,H   1)                1.7473 -2.874614  0.0488    1.7961   
     6. B(I   4,H   3)                1.7473 -2.881246  0.0489    1.7962   
     7. B(I   4,C   0)                1.0700 -5.736666  0.0969    1.1669   
     8. B(I   5,H   2)                2.7455 -0.327054  0.0055    2.7511   
     9. B(I   5,H   1)                2.7371 -0.331236  0.0056    2.7427   
    10. B(I   5,H   3)                2.7039 -0.347360  0.0059    2.7098   
    11. B(I   5,C   0)                2.8922  0.873941 -0.0147    2.8775   
    12. A(H   2,C   0,H   3)          109.47 -0.592645    1.08    110.55   
    13. A(H   1,C   0,H   2)          109.47 -0.599061    1.09    110.56   
    14. A(H   2,C   0,I   5)           71.43 -0.600873    1.10     72.52   
    15. A(H   3,C   0,I   5)           69.20 -0.584083    1.07     70.26   
    16. A(H   1,C   0,I   5)           70.97 -0.597432    1.09     72.06   
    17. A(H   3,C   0,I   4)          109.47  0.591781   -1.08    108.39   
    18. A(H   1,C   0,I   4)          109.47  0.595028   -1.08    108.39   
    19. A(H   1,C   0,H   3)          109.47 -0.590949    1.08    110.55   
    20. A(H   2,C   0,I   4)          109.47  0.595855   -1.09    108.38   
    21. A(C   0,H   1,I   4)           35.26 -1.539308    2.81     38.07   
    22. A(C   0,H   2,I   4)           35.26 -1.539858    2.81     38.08   
    23. A(C   0,H   3,I   4)           35.26 -1.537067    2.81     38.07   
    24. A(H   2,I   4,H   3)           60.00  1.543079   -2.82     57.18   
    25. A(H   1,I   4,H   3)           60.00  1.543820   -2.82     57.18   
    26. A(C   0,I   4,H   3)           35.26  0.945286   -1.73     33.54   
    27. A(H   1,I   4,H   2)           60.00  1.540301   -2.81     57.19   
    28. A(C   0,I   4,H   2)           35.26  0.944003   -1.72     33.54   
    29. A(C   0,I   4,H   1)           35.26  0.944281   -1.72     33.54   
    30. D(I   4,H   1,C   0,H   2)    120.00  0.727307   -1.33    118.67   
    31. D(I   4,H   1,C   0,I   5)   -178.64 -0.002957    0.01   -178.64   
    32. D(I   4,H   1,C   0,H   3)   -120.00 -0.727274    1.33   -118.67   
    33. D(I   4,H   2,C   0,I   5)    178.92  0.002480   -0.00    178.92   
    34. D(I   4,H   2,C   0,H   3)    120.00  0.726748   -1.32    118.68   
    35. D(I   4,H   2,C   0,H   1)   -120.00 -0.726800    1.33   -118.67   
    36. D(I   4,H   3,C   0,I   5)    179.72  0.000475   -0.00    179.72   
    37. D(I   4,H   3,C   0,H   2)   -120.00 -0.729242    1.33   -118.67   
    38. D(I   4,H   3,C   0,H   1)    120.00  0.729261   -1.33    118.67   
    39. D(H   3,I   4,C   0,H   1)   -120.00 -0.003000    0.01   -119.99   
    40. D(H   2,I   4,C   0,H   3)   -120.00 -0.001437    0.00   -120.00   
    41. D(H   2,I   4,C   0,H   1)    120.00 -0.004437    0.01    120.01   
    42. D(H   1,I   4,C   0,H   3)    120.00  0.003000   -0.01    119.99   
    43. D(H   3,I   4,C   0,H   2)    120.00  0.001437   -0.00    120.00   
    44. D(H   1,I   4,H   3,C   0)    -35.26 -0.312791    0.57    -34.69   
    45. D(H   1,I   4,C   0,H   2)   -120.00  0.004437   -0.01   -120.01   
    46. D(H   3,I   4,H   2,C   0)    -35.26 -0.314740    0.57    -34.69   
    47. D(H   1,I   4,H   2,C   0)     35.26  0.317266   -0.58     34.68   
    48. D(H   3,I   4,H   1,C   0)     35.26  0.313801   -0.57     34.69   
    49. D(H   2,I   4,H   3,C   0)     35.26  0.313455   -0.57     34.69   
    50. D(H   2,I   4,H   1,C   0)    -35.26 -0.316992    0.58    -34.69   
    ----------------------------------------------------------------------------

         *************************************************************
         *                GEOMETRY OPTIMIZATION CYCLE   2            *
         *************************************************************
      -----------------------------------------------------------      
     |                   =====================                   |     
     |                           x T B                           |     
     |                   =====================                   |     
     |                         S. Grimme                         |     
     |          Mulliken Center for Theoretical Chemistry        |     
     |                    University of Bonn                     |     
      -----------------------------------------------------------      

   * xtb version 6.4.0 (d4b70c2) compiled by 'ehlert@majestix' on 2021-02-01

   xtb is free software: you can redistribute it and/or modify it under
   the terms of the GNU Lesser General Public License as published by
   the Free Software Foundation, either version 3 of the License, or
   (at your option) any later version.
   
   xtb is distributed in the hope that it will be useful,
   but WITHOUT ANY WARRANTY; without even the implied warranty of
   MERCHANTABILITY or FITNESS FOR A PARTICULAR PURPOSE.  See the
   GNU Lesser General Public License for more details.
   
   Cite this work as:
   * C. Bannwarth, E. Caldeweyher, S. Ehlert, A. Hansen, P. Pracht,
     J. Seibert, S. Spicher, S. Grimme, WIREs Comput. Mol. Sci., 2020,
     e01493. DOI: 10.1002/wcms.1493
   
   for GFN2-xTB:
   * C. Bannwarth, S. Ehlert and S. Grimme., J. Chem. Theory Comput., 2019,
     15, 1652-1671. DOI: 10.1021/acs.jctc.8b01176
   for GFN1-xTB:
   * S. Grimme, C. Bannwarth, P. Shushkov, J. Chem. Theory Comput., 2017,
     13, 1989-2009. DOI: 10.1021/acs.jctc.7b00118
   for GFN0-xTB:
   * P. Pracht, E. Caldeweyher, S. Ehlert, S. Grimme, ChemRxiv, 2019, preprint.
     DOI: 10.26434/chemrxiv.8326202.v1
   for GFN-FF:
   * S. Spicher and S. Grimme, Angew. Chem. Int. Ed., 2020, 59, 15665-15673.
     DOI: 10.1002/anie.202004239
   
   for DFT-D4:
   * E. Caldeweyher, C. Bannwarth and S. Grimme, J. Chem. Phys., 2017,
     147, 034112. DOI: 10.1063/1.4993215
   * E. Caldeweyher, S. Ehlert, A. Hansen, H. Neugebauer, S. Spicher,
     C. Bannwarth and S. Grimme, J. Chem. Phys., 2019, 150, 154122.
     DOI: 10.1063/1.5090222
   * E. Caldeweyher, J.-M. Mewes, S. Ehlert and S. Grimme, Phys. Chem. Chem. Phys.
     2020, 22, 8499-8512. DOI: 10.1039/D0CP00502A
   
   for sTDA-xTB:
   * S. Grimme and C. Bannwarth, J. Chem. Phys., 2016, 145, 054103.
     DOI: 10.1063/1.4959605
   
   in the mass-spec context:
   * V. Asgeirsson, C. Bauer and S. Grimme, Chem. Sci., 2017, 8, 4879.
     DOI: 10.1039/c7sc00601b
   * J. Koopman and S. Grimme, ACS Omega 2019, 4, 12, 15120-15133.
     DOI: 10.1021/acsomega.9b02011
   
   for metadynamics refer to:
   * S. Grimme, J. Chem. Theory Comput., 2019, 155, 2847-2862
     DOI: 10.1021/acs.jctc.9b00143
   
   with help from (in alphabetical order)
   P. Atkinson, C. Bannwarth, F. Bohle, G. Brandenburg, E. Caldeweyher
   M. Checinski, S. Dohm, S. Ehlert, S. Ehrlich, I. Gerasimov, J. Koopman
   C. Lavinge, S. Lehtola, F. März, M. Müller, F. Musil, H. Neugebauer
   J. Pisarek, P. Pracht, J. Seibert, P. Shushkov, S. Spicher, M. Stahn
   T. Strunk, J. Stückrath, T. Rose, and J. Unsleber
   
 * started run on 2022/05/09 at 08:55:15.198     

           -------------------------------------------------
          |                Calculation Setup                |
           -------------------------------------------------

          program call               : /opt/orca/otool_xtb opt+numfreq_XTB.xyz --grad -c -1 -u 0 -P 2 --namespace opt+numfreq
          calculation namespace      : opt+numfreq
          coordinate file            : opt+numfreq_XTB.xyz
          omp threads                :                     2
          number of atoms            :                     6
          number of electrons        :                    22
          charge                     :                    -1
          spin                       :                   0.0
          first test random number   :      0.45092224857229

   ID    Z sym.   atoms
    1    6 C      1
    2    1 H      2-4
    3   53 I      5, 6

molecular fragmentation (1/2 indicates fragments):
111112
# atoms in fragment 1/2:     5     1
 fragment masses (1/2) :      141.94      126.90
CMA distance (Bohr)    :   7.396
constraining FC (au)   :  0.0500
########################################################################
[WARNING] Please study the warnings concerning your input carefully
-1- prog_main_parseArguments: Process number higher than OMP_NUM_THREADS, I hope you know what you are doing.
########################################################################

           -------------------------------------------------
          |                 G F N 2 - x T B                 |
           -------------------------------------------------

        Reference                      10.1021/acs.jctc.8b01176
      * Hamiltonian:
        H0-scaling (s, p, d)           1.850000    2.230000    2.230000
        zeta-weighting                 0.500000
      * Dispersion:
        s8                             2.700000
        a1                             0.520000
        a2                             5.000000
        s9                             5.000000
      * Repulsion:
        kExp                           1.500000    1.000000
        rExp                           1.000000
      * Coulomb:
        alpha                          2.000000
        third order                    shell-resolved
        anisotropic                    true
        a3                             3.000000
        a5                             4.000000
        cn-shift                       1.200000
        cn-exp                         4.000000
        max-rad                        5.000000


          ...................................................
          :                      SETUP                      :
          :.................................................:
          :  # basis functions                  27          :
          :  # atomic orbitals                  25          :
          :  # shells                           11          :
          :  # electrons                        22          :
          :  max. iterations                   250          :
          :  Hamiltonian                  GFN2-xTB          :
          :  restarted?                      false          :
          :  GBSA solvation                  false          :
          :  PC potential                    false          :
          :  electronic temp.          300.0000000     K    :
          :  accuracy                    1.0000000          :
          :  -> integral cutoff          0.2500000E+02      :
          :  -> integral neglect         0.1000000E-07      :
          :  -> SCF convergence          0.1000000E-05 Eh   :
          :  -> wf. convergence          0.1000000E-03 e    :
          :  Broyden damping             0.4000000          :
          ...................................................

 iter      E             dE          RMSdq      gap      omega  full diag
   1    -11.2634141 -0.112634E+02  0.147E+01    6.60       0.0  T
   2    -11.3174054 -0.539913E-01  0.124E+01    6.64       1.0  T
   3    -11.3317522 -0.143468E-01  0.532E+00    5.95       1.0  T
   4    -11.3357007 -0.394842E-02  0.373E+00    5.64       1.0  T
   5    -11.3366211 -0.920494E-03  0.100E+00    5.51       1.0  T
   6    -11.3367376 -0.116498E-03  0.266E-01    5.32       1.0  T
   7    -11.3367834 -0.457411E-04  0.112E-01    5.36       1.0  T
   8    -11.3367869 -0.348541E-05  0.248E-02    5.36       1.6  T
   9    -11.3367871 -0.247177E-06  0.305E-02    5.36       1.3  T
  10    -11.3367871 -0.293680E-07  0.141E-03    5.36      29.0  T
  11    -11.3367871 -0.240712E-09  0.247E-04    5.36     165.5  T
  12    -11.3367871 -0.447713E-10  0.803E-05    5.36     508.3  T

   *** convergence criteria satisfied after 12 iterations ***

         #    Occupation            Energy/Eh            Energy/eV
      -------------------------------------------------------------
         1        2.0000           -0.6259875             -17.0340
       ...           ...                  ...                  ...
         5        2.0000           -0.3988936             -10.8544
         6        2.0000           -0.2777193              -7.5571
         7        2.0000           -0.1986608              -5.4058
         8        2.0000           -0.1986192              -5.4047
         9        2.0000           -0.1658347              -4.5126
        10        2.0000           -0.1656677              -4.5080
        11        2.0000           -0.1560298              -4.2458 (HOMO)
        12                          0.0409589               1.1145 (LUMO)
        13                          0.0927868               2.5249
        14                          0.0927966               2.5251
        15                          0.3336816               9.0799
        16                          0.3365016               9.1567
       ...                                ...                  ...
        25                          3.9421383             107.2710
      -------------------------------------------------------------
                  HL-Gap            0.1969887 Eh            5.3603 eV
             Fermi-level           -0.0575354 Eh           -1.5656 eV

 SCC (total)                   0 d,  0 h,  0 min,  0.008 sec
 SCC setup                      ...        0 min,  0.000 sec (  2.052%)
 Dispersion                     ...        0 min,  0.000 sec (  0.600%)
 classical contributions        ...        0 min,  0.000 sec (  0.262%)
 integral evaluation            ...        0 min,  0.001 sec ( 17.864%)
 iterations                     ...        0 min,  0.004 sec ( 51.010%)
 molecular gradient             ...        0 min,  0.002 sec ( 25.247%)
 printout                       ...        0 min,  0.000 sec (  1.539%)

         :::::::::::::::::::::::::::::::::::::::::::::::::::::
         ::                     SUMMARY                     ::
         :::::::::::::::::::::::::::::::::::::::::::::::::::::
         :: total energy              -8.224886865677 Eh    ::
         :: gradient norm             13.075040098463 Eh/a0 ::
         :: HOMO-LUMO gap              5.360334631188 eV    ::
         ::.................................................::
         :: SCC energy               -11.336787145914 Eh    ::
         :: -> isotropic ES            0.158881634587 Eh    ::
         :: -> anisotropic ES         -0.020495036382 Eh    ::
         :: -> anisotropic XC         -0.125900521294 Eh    ::
         :: -> dispersion             -0.004663693917 Eh    ::
         :: repulsion energy           3.111900301946 Eh    ::
         :: add. restraining           0.000000000000 Eh    ::
         :: total charge              -1.000000000000 e     ::
         :::::::::::::::::::::::::::::::::::::::::::::::::::::

           -------------------------------------------------
          |                Property Printout                |
           -------------------------------------------------

    * Orbital Energies and Occupations

         #    Occupation            Energy/Eh            Energy/eV
      -------------------------------------------------------------
         1        2.0000           -0.6259875             -17.0340
         2        2.0000           -0.4725004             -12.8574
         3        2.0000           -0.4268741             -11.6158
         4        2.0000           -0.3992010             -10.8628
         5        2.0000           -0.3988936             -10.8544
         6        2.0000           -0.2777193              -7.5571
         7        2.0000           -0.1986608              -5.4058
         8        2.0000           -0.1986192              -5.4047
         9        2.0000           -0.1658347              -4.5126
        10        2.0000           -0.1656677              -4.5080
        11        2.0000           -0.1560298              -4.2458 (HOMO)
        12                          0.0409589               1.1145 (LUMO)
        13                          0.0927868               2.5249
        14                          0.0927966               2.5251
        15                          0.3336816               9.0799
        16                          0.3365016               9.1567
        17                          0.3830507              10.4233
        18                          0.3831273              10.4254
        19                          0.3860005              10.5036
        20                          0.4461527              12.1404
        21                          0.5234506              14.2438
        22                          0.5235207              14.2457
       ...                                ...                  ...
        25                          3.9421383             107.2710
      -------------------------------------------------------------
                  HL-Gap            0.1969887 Eh            5.3603 eV
             Fermi-level           -0.0575354 Eh           -1.5656 eV

     #   Z          covCN         q      C6AA      α(0)
     1   6 C        4.063    -0.043    21.257     6.549
     2   1 H        1.819     0.009     2.887     2.653
     3   1 H        1.819     0.008     2.903     2.660
     4   1 H        1.821     0.013     2.825     2.624
     5  53 I        3.685    -0.019   373.301    33.353
     6  53 I        0.381    -0.968   434.708    36.051

 Mol. C6AA /au·bohr⁶  :       2479.001383
 Mol. C8AA /au·bohr⁸  :     182370.538681
 Mol. α(0) /au        :         83.889409


Wiberg/Mayer (AO) data.
largest (>0.10) Wiberg bond orders for each atom

 ---------------------------------------------------------------------------
     #   Z sym  total        # sym  WBO       # sym  WBO       # sym  WBO
 ---------------------------------------------------------------------------
     1   6 C    3.874 --     5 I    1.161     3 H    0.911     2 H    0.911
                             4 H    0.911
     2   1 H    1.000 --     1 C    0.911
     3   1 H    1.000 --     1 C    0.911
     4   1 H    1.000 --     1 C    0.911
     5  53 I    1.453 --     1 C    1.161
     6  53 I   -0.033 -- ---------------------------------------------------------------------------

Topologies differ in total number of bonds
Writing topology from bond orders to xtbtopo.mol

molecular dipole:
                 x           y           z       tot (Debye)
 q only:        7.936      -1.342      -0.004
   full:        4.055      -1.813       0.047      11.291
molecular quadrupole (traceless):
                xx          xy          yy          xz          yz          zz
 q only:      -63.680      15.599      30.468       0.021      -0.005      33.211
  q+dip:      -64.381       1.202      29.097       0.216       0.201      35.284
   full:      -61.298       1.802      27.593       0.179       0.196      33.704


           -------------------------------------------------
          | TOTAL ENERGY               -8.224886865677 Eh   |
          | GRADIENT NORM              13.075040098463 Eh/α |
          | HOMO-LUMO GAP               5.360334631188 eV   |
           -------------------------------------------------

------------------------------------------------------------------------
 * finished run on 2022/05/09 at 08:55:15.246     
------------------------------------------------------------------------
 total:
 * wall-time:     0 d,  0 h,  0 min,  0.048 sec
 *  cpu-time:     0 d,  0 h,  0 min,  0.055 sec
 * ratio c/w:     1.151 speedup
 SCF:
 * wall-time:     0 d,  0 h,  0 min,  0.008 sec
 *  cpu-time:     0 d,  0 h,  0 min,  0.014 sec
 * ratio c/w:     1.723 speedup


-------------------------   --------------------
FINAL SINGLE POINT ENERGY        -8.224886865680
-------------------------   --------------------

------------------------------------------------------------------------------
                         ORCA GEOMETRY RELAXATION STEP
------------------------------------------------------------------------------

Reading the OPT-File                    .... done
Getting information on internals        .... done
Copying old internal coords+grads       .... done
Making the new internal coordinates     .... (new redundants).... done
Validating the new internal coordinates .... (new redundants).... done
Calculating the B-matrix                .... done
Calculating the G,G- and P matrices     .... done
Transforming gradient to internals      .... done
Projecting the internal gradient        .... done
Number of atoms                         ....   6
Number of internal coordinates          ....  50
Current Energy                          ....    -8.224886866 Eh
Current gradient norm                   ....    13.075040098 Eh/bohr
Maximum allowed component of the step   ....  0.300
Current trust radius                    ....  0.300
Updating the Hessian (BFGS)             .... done
Forming the augmented Hessian           .... done
Diagonalizing the augmented Hessian     .... done
Last element of RFO vector              ....  0.925606832
Lowest eigenvalues of augmented Hessian:
 -2.218100062  0.004744496  0.062434799  0.063122510  0.221453426
Length of the computed step             ....  0.408906283
Warning: the length of the step is outside the trust region - taking restricted step instead
The input lambda is                     ....    -2.218100
   iter:   1  x=   -4.363081  g=    0.035993 f(x)=     0.077204
   iter:   2  x=   -6.138684  g=    0.015776 f(x)=     0.028012
   iter:   3  x=   -6.593916  g=    0.010795 f(x)=     0.004914
   iter:   4  x=   -6.614085  g=    0.009934 f(x)=     0.000200
   iter:   5  x=   -6.614121  g=    0.009898 f(x)=     0.000000
   iter:   6  x=   -6.614121  g=    0.009898 f(x)=     0.000000
   iter:   7  x=   -6.614121  g=    0.009898 f(x)=     0.000000
The output lambda is                    ....    -6.614121 (7 iterations)
The final length of the internal step   ....  0.300000000
Converting the step to cartesian space:
 Initial RMS(Int)=    0.0424264069
Transforming coordinates:
 Iter   0:  RMS(Cart)=    0.0345879656 RMS(Int)=    0.0424886913
 Iter   1:  RMS(Cart)=    0.0005230734 RMS(Int)=    0.0004032228
 Iter   2:  RMS(Cart)=    0.0000045640 RMS(Int)=    0.0000054913
 Iter   3:  RMS(Cart)=    0.0000000878 RMS(Int)=    0.0000000637
done
Storing new coordinates                 .... done

                                .--------------------.
          ----------------------|Geometry convergence|-------------------------
          Item                value                   Tolerance       Converged
          ---------------------------------------------------------------------
          Energy change      -2.2122901562            0.0000050000      NO
          RMS gradient        0.8002029298            0.0001000000      NO
          MAX gradient        3.4380110705            0.0003000000      NO
          RMS step            0.0424264069            0.0020000000      NO
          MAX step            0.1808248791            0.0040000000      NO
          ........................................................
          Max(Bonds)      0.0957      Max(Angles)    2.61
          Max(Dihed)        1.19      Max(Improp)    0.00
          ---------------------------------------------------------------------

The optimization has not yet converged - more geometry cycles are needed


    ---------------------------------------------------------------------------
                         Redundant Internal Coordinates
                            (Angstroem and degrees)

        Definition                    Value    dE/dq     Step     New-Value
    ----------------------------------------------------------------------------
     1. B(H   1,C   0)                1.0467  0.802937 -0.0153    1.0314   
     2. B(H   2,C   0)                1.0467  0.803302 -0.0153    1.0314   
     3. B(H   3,C   0)                1.0467  0.801326 -0.0153    1.0315   
     4. B(I   4,H   2)                1.7964 -1.804385  0.0563    1.8527   
     5. B(I   4,H   1)                1.7964 -1.805249  0.0563    1.8528   
     6. B(I   4,H   3)                1.7965 -1.808837  0.0564    1.8529   
     7. B(I   4,C   0)                1.1667 -3.438011  0.0957    1.2624   
     8. B(I   5,H   2)                2.7510 -0.190930  0.0057    2.7567   
     9. B(I   5,H   1)                2.7426 -0.193498  0.0058    2.7484   
    10. B(I   5,H   3)                2.7097 -0.203520  0.0060    2.7157   
    11. B(I   5,C   0)                2.8778  0.487591 -0.0117    2.8661   
    12. A(H   2,C   0,H   3)          110.53 -0.334632    0.92    111.45   
    13. A(H   1,C   0,H   2)          110.54 -0.338438    0.93    111.48   
    14. A(H   2,C   0,I   5)           72.52 -0.353935    0.96     73.48   
    15. A(H   3,C   0,I   5)           70.26 -0.343831    0.94     71.20   
    16. A(H   1,C   0,I   5)           72.06 -0.351854    0.95     73.02   
    17. A(H   3,C   0,I   4)          108.39  0.348530   -0.95    107.44   
    18. A(H   1,C   0,I   4)          108.39  0.350394   -0.95    107.44   
    19. A(H   1,C   0,H   3)          110.53 -0.333628    0.92    111.45   
    20. A(H   2,C   0,I   4)          108.38  0.350863   -0.95    107.43   
    21. A(C   0,H   1,I   4)           38.05 -0.895338    2.54     40.59   
    22. A(C   0,H   2,I   4)           38.05 -0.895679    2.54     40.59   
    23. A(C   0,H   3,I   4)           38.04 -0.893940    2.54     40.58   
    24. A(H   2,I   4,H   3)           57.22  0.896387   -2.61     54.61   
    25. A(H   1,I   4,H   3)           57.21  0.896764   -2.61     54.60   
    26. A(C   0,I   4,H   3)           33.56  0.545410   -1.59     31.97   
    27. A(H   1,I   4,H   2)           57.22  0.894966   -2.61     54.61   
    28. A(C   0,I   4,H   2)           33.57  0.544817   -1.59     31.98   
    29. A(C   0,I   4,H   1)           33.57  0.544944   -1.59     31.98   
    30. D(I   4,H   1,C   0,H   2)    118.65  0.442743   -1.19    117.47   
    31. D(I   4,H   1,C   0,I   5)   -178.63 -0.002049    0.00   -178.63   
    32. D(I   4,H   1,C   0,H   3)   -118.65 -0.442585    1.19   -117.46   
    33. D(I   4,H   2,C   0,I   5)    178.92  0.001697   -0.00    178.91   
    34. D(I   4,H   2,C   0,H   3)    118.65  0.442315   -1.19    117.47   
    35. D(I   4,H   2,C   0,H   1)   -118.65 -0.442460    1.18   -117.47   
    36. D(I   4,H   3,C   0,I   5)    179.72  0.000351   -0.00    179.72   
    37. D(I   4,H   3,C   0,H   2)   -118.65 -0.443724    1.19   -117.46   
    38. D(I   4,H   3,C   0,H   1)    118.65  0.443711   -1.19    117.46   
    39. D(H   3,I   4,C   0,H   1)   -119.99 -0.001779    0.01   -119.99   
    40. D(H   2,I   4,C   0,H   3)   -120.00 -0.000852    0.00   -120.00   
    41. D(H   2,I   4,C   0,H   1)    120.01 -0.002631    0.01    120.02   
    42. D(H   1,I   4,C   0,H   3)    119.99  0.001779   -0.01    119.99   
    43. D(H   3,I   4,C   0,H   2)    120.00  0.000852   -0.00    120.00   
    44. D(H   1,I   4,H   3,C   0)    -34.72 -0.168132    0.51    -34.21   
    45. D(H   1,I   4,C   0,H   2)   -120.01  0.002631   -0.01   -120.02   
    46. D(H   3,I   4,H   2,C   0)    -34.72 -0.169195    0.51    -34.21   
    47. D(H   1,I   4,H   2,C   0)     34.71  0.170742   -0.51     34.20   
    48. D(H   3,I   4,H   1,C   0)     34.72  0.168648   -0.51     34.21   
    49. D(H   2,I   4,H   3,C   0)     34.72  0.168541   -0.51     34.21   
    50. D(H   2,I   4,H   1,C   0)    -34.71 -0.170604    0.51    -34.20   
    ----------------------------------------------------------------------------

         *************************************************************
         *                GEOMETRY OPTIMIZATION CYCLE   3            *
         *************************************************************
      -----------------------------------------------------------      
     |                   =====================                   |     
     |                           x T B                           |     
     |                   =====================                   |     
     |                         S. Grimme                         |     
     |          Mulliken Center for Theoretical Chemistry        |     
     |                    University of Bonn                     |     
      -----------------------------------------------------------      

   * xtb version 6.4.0 (d4b70c2) compiled by 'ehlert@majestix' on 2021-02-01

   xtb is free software: you can redistribute it and/or modify it under
   the terms of the GNU Lesser General Public License as published by
   the Free Software Foundation, either version 3 of the License, or
   (at your option) any later version.
   
   xtb is distributed in the hope that it will be useful,
   but WITHOUT ANY WARRANTY; without even the implied warranty of
   MERCHANTABILITY or FITNESS FOR A PARTICULAR PURPOSE.  See the
   GNU Lesser General Public License for more details.
   
   Cite this work as:
   * C. Bannwarth, E. Caldeweyher, S. Ehlert, A. Hansen, P. Pracht,
     J. Seibert, S. Spicher, S. Grimme, WIREs Comput. Mol. Sci., 2020,
     e01493. DOI: 10.1002/wcms.1493
   
   for GFN2-xTB:
   * C. Bannwarth, S. Ehlert and S. Grimme., J. Chem. Theory Comput., 2019,
     15, 1652-1671. DOI: 10.1021/acs.jctc.8b01176
   for GFN1-xTB:
   * S. Grimme, C. Bannwarth, P. Shushkov, J. Chem. Theory Comput., 2017,
     13, 1989-2009. DOI: 10.1021/acs.jctc.7b00118
   for GFN0-xTB:
   * P. Pracht, E. Caldeweyher, S. Ehlert, S. Grimme, ChemRxiv, 2019, preprint.
     DOI: 10.26434/chemrxiv.8326202.v1
   for GFN-FF:
   * S. Spicher and S. Grimme, Angew. Chem. Int. Ed., 2020, 59, 15665-15673.
     DOI: 10.1002/anie.202004239
   
   for DFT-D4:
   * E. Caldeweyher, C. Bannwarth and S. Grimme, J. Chem. Phys., 2017,
     147, 034112. DOI: 10.1063/1.4993215
   * E. Caldeweyher, S. Ehlert, A. Hansen, H. Neugebauer, S. Spicher,
     C. Bannwarth and S. Grimme, J. Chem. Phys., 2019, 150, 154122.
     DOI: 10.1063/1.5090222
   * E. Caldeweyher, J.-M. Mewes, S. Ehlert and S. Grimme, Phys. Chem. Chem. Phys.
     2020, 22, 8499-8512. DOI: 10.1039/D0CP00502A
   
   for sTDA-xTB:
   * S. Grimme and C. Bannwarth, J. Chem. Phys., 2016, 145, 054103.
     DOI: 10.1063/1.4959605
   
   in the mass-spec context:
   * V. Asgeirsson, C. Bauer and S. Grimme, Chem. Sci., 2017, 8, 4879.
     DOI: 10.1039/c7sc00601b
   * J. Koopman and S. Grimme, ACS Omega 2019, 4, 12, 15120-15133.
     DOI: 10.1021/acsomega.9b02011
   
   for metadynamics refer to:
   * S. Grimme, J. Chem. Theory Comput., 2019, 155, 2847-2862
     DOI: 10.1021/acs.jctc.9b00143
   
   with help from (in alphabetical order)
   P. Atkinson, C. Bannwarth, F. Bohle, G. Brandenburg, E. Caldeweyher
   M. Checinski, S. Dohm, S. Ehlert, S. Ehrlich, I. Gerasimov, J. Koopman
   C. Lavinge, S. Lehtola, F. März, M. Müller, F. Musil, H. Neugebauer
   J. Pisarek, P. Pracht, J. Seibert, P. Shushkov, S. Spicher, M. Stahn
   T. Strunk, J. Stückrath, T. Rose, and J. Unsleber
   
 * started run on 2022/05/09 at 08:55:15.316     

           -------------------------------------------------
          |                Calculation Setup                |
           -------------------------------------------------

          program call               : /opt/orca/otool_xtb opt+numfreq_XTB.xyz --grad -c -1 -u 0 -P 2 --namespace opt+numfreq
          calculation namespace      : opt+numfreq
          coordinate file            : opt+numfreq_XTB.xyz
          omp threads                :                     2
          number of atoms            :                     6
          number of electrons        :                    22
          charge                     :                    -1
          spin                       :                   0.0
          first test random number   :      0.84529303053855

   ID    Z sym.   atoms
    1    6 C      1
    2    1 H      2-4
    3   53 I      5, 6

molecular fragmentation (1/2 indicates fragments):
111112
# atoms in fragment 1/2:     5     1
 fragment masses (1/2) :      141.94      126.90
CMA distance (Bohr)    :   7.537
constraining FC (au)   :  0.0500
########################################################################
[WARNING] Please study the warnings concerning your input carefully
-1- prog_main_parseArguments: Process number higher than OMP_NUM_THREADS, I hope you know what you are doing.
########################################################################

           -------------------------------------------------
          |                 G F N 2 - x T B                 |
           -------------------------------------------------

        Reference                      10.1021/acs.jctc.8b01176
      * Hamiltonian:
        H0-scaling (s, p, d)           1.850000    2.230000    2.230000
        zeta-weighting                 0.500000
      * Dispersion:
        s8                             2.700000
        a1                             0.520000
        a2                             5.000000
        s9                             5.000000
      * Repulsion:
        kExp                           1.500000    1.000000
        rExp                           1.000000
      * Coulomb:
        alpha                          2.000000
        third order                    shell-resolved
        anisotropic                    true
        a3                             3.000000
        a5                             4.000000
        cn-shift                       1.200000
        cn-exp                         4.000000
        max-rad                        5.000000


          ...................................................
          :                      SETUP                      :
          :.................................................:
          :  # basis functions                  27          :
          :  # atomic orbitals                  25          :
          :  # shells                           11          :
          :  # electrons                        22          :
          :  max. iterations                   250          :
          :  Hamiltonian                  GFN2-xTB          :
          :  restarted?                      false          :
          :  GBSA solvation                  false          :
          :  PC potential                    false          :
          :  electronic temp.          300.0000000     K    :
          :  accuracy                    1.0000000          :
          :  -> integral cutoff          0.2500000E+02      :
          :  -> integral neglect         0.1000000E-07      :
          :  -> SCF convergence          0.1000000E-05 Eh   :
          :  -> wf. convergence          0.1000000E-03 e    :
          :  Broyden damping             0.4000000          :
          ...................................................

 iter      E             dE          RMSdq      gap      omega  full diag
   1    -11.3348502 -0.113349E+02  0.151E+01    6.54       0.0  T
   2    -11.3818069 -0.469567E-01  0.125E+01    6.47       1.0  T
   3    -11.3963029 -0.144960E-01  0.556E+00    5.66       1.0  T
   4    -11.3986954 -0.239249E-02  0.382E+00    5.59       1.0  T
   5    -11.4000262 -0.133084E-02  0.842E-01    5.36       1.0  T
   6    -11.4001082 -0.819742E-04  0.176E-01    5.22       1.0  T
   7    -11.4001163 -0.812519E-05  0.633E-02    5.23       1.0  T
   8    -11.4001171 -0.760787E-06  0.356E-02    5.23       1.1  T
   9    -11.4001172 -0.900290E-07  0.235E-03    5.23      17.4  T
  10    -11.4001172 -0.174437E-08  0.138E-03    5.23      29.6  T
  11    -11.4001172 -0.162059E-09  0.983E-05    5.23     415.5  T
  12    -11.4001172 -0.125766E-11  0.564E-05    5.23     723.5  T

   *** convergence criteria satisfied after 12 iterations ***

         #    Occupation            Energy/Eh            Energy/eV
      -------------------------------------------------------------
         1        2.0000           -0.6314982             -17.1839
       ...           ...                  ...                  ...
         5        2.0000           -0.3955984             -10.7648
         6        2.0000           -0.2952068              -8.0330
         7        2.0000           -0.2145460              -5.8381
         8        2.0000           -0.2144426              -5.8353
         9        2.0000           -0.1672867              -4.5521
        10        2.0000           -0.1671968              -4.5497
        11        2.0000           -0.1593725              -4.3367 (HOMO)
        12                          0.0328821               0.8948 (LUMO)
        13                          0.0963480               2.6218
        14                          0.0963551               2.6220
        15                          0.3272062               8.9037
        16                          0.3298135               8.9747
       ...                                ...                  ...
        25                          3.5956041              97.8414
      -------------------------------------------------------------
                  HL-Gap            0.1922547 Eh            5.2315 eV
             Fermi-level           -0.0632452 Eh           -1.7210 eV

 SCC (total)                   0 d,  0 h,  0 min,  0.009 sec
 SCC setup                      ...        0 min,  0.000 sec (  1.687%)
 Dispersion                     ...        0 min,  0.000 sec (  0.445%)
 classical contributions        ...        0 min,  0.000 sec (  0.190%)
 integral evaluation            ...        0 min,  0.004 sec ( 41.991%)
 iterations                     ...        0 min,  0.003 sec ( 34.175%)
 molecular gradient             ...        0 min,  0.002 sec ( 19.697%)
 printout                       ...        0 min,  0.000 sec (  1.345%)

         :::::::::::::::::::::::::::::::::::::::::::::::::::::
         ::                     SUMMARY                     ::
         :::::::::::::::::::::::::::::::::::::::::::::::::::::
         :: total energy              -9.550222000664 Eh    ::
         :: gradient norm              7.864636128752 Eh/a0 ::
         :: HOMO-LUMO gap              5.231515476020 eV    ::
         ::.................................................::
         :: SCC energy               -11.400117189716 Eh    ::
         :: -> isotropic ES            0.157568594105 Eh    ::
         :: -> anisotropic ES         -0.019339371849 Eh    ::
         :: -> anisotropic XC         -0.112502229022 Eh    ::
         :: -> dispersion             -0.004623236974 Eh    ::
         :: repulsion energy           1.849895244803 Eh    ::
         :: add. restraining           0.000000000000 Eh    ::
         :: total charge              -1.000000000000 e     ::
         :::::::::::::::::::::::::::::::::::::::::::::::::::::

           -------------------------------------------------
          |                Property Printout                |
           -------------------------------------------------

    * Orbital Energies and Occupations

         #    Occupation            Energy/Eh            Energy/eV
      -------------------------------------------------------------
         1        2.0000           -0.6314982             -17.1839
         2        2.0000           -0.4771765             -12.9846
         3        2.0000           -0.4280522             -11.6479
         4        2.0000           -0.3959296             -10.7738
         5        2.0000           -0.3955984             -10.7648
         6        2.0000           -0.2952068              -8.0330
         7        2.0000           -0.2145460              -5.8381
         8        2.0000           -0.2144426              -5.8353
         9        2.0000           -0.1672867              -4.5521
        10        2.0000           -0.1671968              -4.5497
        11        2.0000           -0.1593725              -4.3367 (HOMO)
        12                          0.0328821               0.8948 (LUMO)
        13                          0.0963480               2.6218
        14                          0.0963551               2.6220
        15                          0.3272062               8.9037
        16                          0.3298135               8.9747
        17                          0.3819959              10.3946
        18                          0.3820543              10.3962
        19                          0.4091613              11.1338
        20                          0.4458596              12.1325
        21                          0.4534524              12.3391
        22                          0.4541069              12.3569
       ...                                ...                  ...
        25                          3.5956041              97.8414
      -------------------------------------------------------------
                  HL-Gap            0.1922547 Eh            5.2315 eV
             Fermi-level           -0.0632452 Eh           -1.7210 eV

     #   Z          covCN         q      C6AA      α(0)
     1   6 C        4.080    -0.039    21.189     6.538
     2   1 H        1.798     0.011     2.851     2.636
     3   1 H        1.798     0.010     2.865     2.643
     4   1 H        1.800     0.015     2.794     2.610
     5  53 I        3.596    -0.034   374.443    33.404
     6  53 I        0.372    -0.963   433.817    36.016

 Mol. C6AA /au·bohr⁶  :       2476.019706
 Mol. C8AA /au·bohr⁸  :     182312.277544
 Mol. α(0) /au        :         83.846092


Wiberg/Mayer (AO) data.
largest (>0.10) Wiberg bond orders for each atom

 ---------------------------------------------------------------------------
     #   Z sym  total        # sym  WBO       # sym  WBO       # sym  WBO
 ---------------------------------------------------------------------------
     1   6 C    3.918 --     5 I    1.104     3 H    0.946     2 H    0.946
                             4 H    0.945
     2   1 H    1.000 --     1 C    0.946
     3   1 H    1.000 --     1 C    0.946
     4   1 H    1.000 --     1 C    0.945
     5  53 I    1.308 --     1 C    1.104
     6  53 I   -0.031 -- ---------------------------------------------------------------------------

Topologies differ in total number of bonds
Writing topology from bond orders to xtbtopo.mol

molecular dipole:
                 x           y           z       tot (Debye)
 q only:        7.898      -1.347      -0.003
   full:        4.286      -1.783       0.045      11.799
molecular quadrupole (traceless):
                xx          xy          yy          xz          yz          zz
 q only:      -63.739      15.442      30.481       0.020      -0.002      33.258
  q+dip:      -66.646       1.599      30.307       0.227       0.195      36.340
   full:      -63.123       2.281      28.588       0.181       0.189      34.535


           -------------------------------------------------
          | TOTAL ENERGY               -9.550222000664 Eh   |
          | GRADIENT NORM               7.864636128752 Eh/α |
          | HOMO-LUMO GAP               5.231515476020 eV   |
           -------------------------------------------------

------------------------------------------------------------------------
 * finished run on 2022/05/09 at 08:55:15.347     
------------------------------------------------------------------------
 total:
 * wall-time:     0 d,  0 h,  0 min,  0.030 sec
 *  cpu-time:     0 d,  0 h,  0 min,  0.041 sec
 * ratio c/w:     1.332 speedup
 SCF:
 * wall-time:     0 d,  0 h,  0 min,  0.010 sec
 *  cpu-time:     0 d,  0 h,  0 min,  0.014 sec
 * ratio c/w:     1.468 speedup


-------------------------   --------------------
FINAL SINGLE POINT ENERGY        -9.550222000660
-------------------------   --------------------

------------------------------------------------------------------------------
                         ORCA GEOMETRY RELAXATION STEP
------------------------------------------------------------------------------

Reading the OPT-File                    .... done
Getting information on internals        .... done
Copying old internal coords+grads       .... done
Making the new internal coordinates     .... (new redundants).... done
Validating the new internal coordinates .... (new redundants).... done
Calculating the B-matrix                .... done
Calculating the G,G- and P matrices     .... done
Transforming gradient to internals      .... done
Projecting the internal gradient        .... done
Number of atoms                         ....   6
Number of internal coordinates          ....  50
Current Energy                          ....    -9.550222001 Eh
Current gradient norm                   ....     7.864636129 Eh/bohr
Maximum allowed component of the step   ....  0.300
Current trust radius                    ....  0.300
Updating the Hessian (BFGS)             .... done
Forming the augmented Hessian           .... done
Diagonalizing the augmented Hessian     .... done
Last element of RFO vector              ....  0.925202772
Lowest eigenvalues of augmented Hessian:
 -1.325661493  0.004920735  0.062434802  0.063122506  0.219071483
Length of the computed step             ....  0.410151274
Warning: the length of the step is outside the trust region - taking restricted step instead
The input lambda is                     ....    -1.325661
   iter:   1  x=   -2.565434  g=    0.063096 f(x)=     0.078224
   iter:   2  x=   -3.617796  g=    0.027200 f(x)=     0.028624
   iter:   3  x=   -3.903414  g=    0.018314 f(x)=     0.005231
   iter:   4  x=   -3.917208  g=    0.016736 f(x)=     0.000231
   iter:   5  x=   -3.917238  g=    0.016666 f(x)=     0.000000
   iter:   6  x=   -3.917238  g=    0.016666 f(x)=     0.000000
   iter:   7  x=   -3.917238  g=    0.016666 f(x)=     0.000000
The output lambda is                    ....    -3.917238 (7 iterations)
The final length of the internal step   ....  0.300000000
Converting the step to cartesian space:
 Initial RMS(Int)=    0.0424264069
Transforming coordinates:
[...]
         5        2.0000           -0.3710179             -10.0959
         6        2.0000           -0.3501755              -9.5288
         7        2.0000           -0.2841351              -7.7317
         8        2.0000           -0.2841307              -7.7316
         9        2.0000           -0.1797717              -4.8918
        10        2.0000           -0.1742811              -4.7424
        11        2.0000           -0.1742802              -4.7424 (HOMO)
        12                         -0.1036061              -2.8193 (LUMO)
        13                          0.1591126               4.3297
        14                          0.1591218               4.3299
        15                          0.1843612               5.0167
        16                          0.1843827               5.0173
        17                          0.2825508               7.6886
        18                          0.3097967               8.4300
        19                          0.3099475               8.4341
        20                          0.3669373               9.9849
        21                          0.3669445               9.9851
        22                          0.3987212              10.8498
       ...                                ...                  ...
        25                          0.4618080              12.5664
      -------------------------------------------------------------
                  HL-Gap            0.0706741 Eh            1.9231 eV
             Fermi-level           -0.1389431 Eh           -3.7808 eV

     #   Z          covCN         q      C6AA      α(0)
     1   6 C        3.786    -0.020    20.945     6.519
     2   1 H        0.931     0.060     2.194     2.316
     3   1 H        0.931     0.060     2.193     2.316
     4   1 H        0.931     0.060     2.196     2.317
     5  53 I        0.964    -0.276   392.760    34.211
     6  53 I        0.058    -0.885   422.787    35.570

 Mol. C6AA /au·bohr⁶  :       2433.247016
 Mol. C8AA /au·bohr⁸  :     182040.885372
 Mol. α(0) /au        :         83.248160


Wiberg/Mayer (AO) data.
largest (>0.10) Wiberg bond orders for each atom

 ---------------------------------------------------------------------------
     #   Z sym  total        # sym  WBO       # sym  WBO       # sym  WBO
 ---------------------------------------------------------------------------
     1   6 C    3.941 --     4 H    0.999     2 H    0.998     3 H    0.998
                             5 I    0.868
     2   1 H    0.996 --     1 C    0.998
     3   1 H    0.996 --     1 C    0.998
     4   1 H    0.996 --     1 C    0.999
     5  53 I    0.869 --     1 C    0.868
     6  53 I    0.070 -- ---------------------------------------------------------------------------

Topologies differ in total number of bonds
Writing topology from bond orders to xtbtopo.mol

molecular dipole:
                 x           y           z       tot (Debye)
 q only:        7.027      -1.495      -0.020
   full:        6.140      -1.614      -0.016      16.137
molecular quadrupole (traceless):
                xx          xy          yy          xz          yz          zz
 q only:      -68.104      11.756      32.108       0.360      -0.024      35.996
  q+dip:      -73.779       7.316      34.430       0.428      -0.000      39.349
   full:      -71.303       7.818      33.226       0.411      -0.002      38.077


           -------------------------------------------------
          | TOTAL ENERGY              -11.554853648233 Eh   |
          | GRADIENT NORM               0.000073362657 Eh/α |
          | HOMO-LUMO GAP               1.923140750333 eV   |
           -------------------------------------------------

------------------------------------------------------------------------
 * finished run on 2022/05/09 at 08:55:17.507     
------------------------------------------------------------------------
 total:
 * wall-time:     0 d,  0 h,  0 min,  0.034 sec
 *  cpu-time:     0 d,  0 h,  0 min,  0.031 sec
 * ratio c/w:     0.927 speedup
 SCF:
 * wall-time:     0 d,  0 h,  0 min,  0.009 sec
 *  cpu-time:     0 d,  0 h,  0 min,  0.009 sec
 * ratio c/w:     0.994 speedup


-------------------------   --------------------
FINAL SINGLE POINT ENERGY       -11.554853648230
-------------------------   --------------------

                                *** OPTIMIZATION RUN DONE ***

----------------------------------------------------------------------------
                           ORCA NUMERICAL FREQUENCIES
                              (2-process run)
----------------------------------------------------------------------------

Number of atoms                ... 6
Central differences            ... used
Number of displacements        ... 36
Numerical increment            ... 5.000e-03 bohr
IR-spectrum generation         ... on
Raman-spectrum generation      ... off
Surface Crossing Hessian       ... off
List of participating nodes    ...  opt+numfreq.hostnames

The output will be reduced. Please look at the following files:
SCF program output             ... >opt+numfreq.lastscf
Integral program output        ... >opt+numfreq.lastint
Gradient program output        ... >opt+numfreq.lastgrad
Dipole moment program output   ... >opt+numfreq.lastmom
AutoCI program output          ... >opt+numfreq.lastautoci


         <<< Energy and Gradient at the input geometry >>>

        <<< Energy and Gradient at displaced geometries >>>
             <<<Displacing   1/coordinate 1 (+)>>>
             <<<Displacing   1/coordinate 1 (-)>>>
             <<<Displacing   1/coordinate 2 (+)>>>
             <<<Displacing   1/coordinate 2 (-)>>>
             <<<Displacing   1/coordinate 3 (+)>>>
             <<<Displacing   1/coordinate 3 (-)>>>
             <<<Displacing   2/coordinate 1 (+)>>>
             <<<Displacing   2/coordinate 1 (-)>>>
             <<<Displacing   2/coordinate 2 (+)>>>
             <<<Displacing   2/coordinate 2 (-)>>>
             <<<Displacing   2/coordinate 3 (+)>>>
             <<<Displacing   2/coordinate 3 (-)>>>
             <<<Displacing   3/coordinate 1 (+)>>>
             <<<Displacing   3/coordinate 1 (-)>>>
             <<<Displacing   3/coordinate 2 (+)>>>
             <<<Displacing   3/coordinate 2 (-)>>>
             <<<Displacing   3/coordinate 3 (+)>>>
             <<<Displacing   3/coordinate 3 (-)>>>
             <<<Displacing   4/coordinate 1 (+)>>>
             <<<Displacing   4/coordinate 1 (-)>>>
             <<<Displacing   4/coordinate 2 (+)>>>
             <<<Displacing   4/coordinate 2 (-)>>>
             <<<Displacing   4/coordinate 3 (+)>>>
             <<<Displacing   4/coordinate 3 (-)>>>
             <<<Displacing   5/coordinate 1 (+)>>>
             <<<Displacing   5/coordinate 1 (-)>>>
             <<<Displacing   5/coordinate 2 (+)>>>
             <<<Displacing   5/coordinate 2 (-)>>>
             <<<Displacing   5/coordinate 3 (+)>>>
             <<<Displacing   5/coordinate 3 (-)>>>
             <<<Displacing   6/coordinate 1 (+)>>>
             <<<Displacing   6/coordinate 1 (-)>>>
             <<<Displacing   6/coordinate 2 (+)>>>
             <<<Displacing   6/coordinate 2 (-)>>>
             <<<Displacing   6/coordinate 3 (+)>>>
             <<<Displacing   6/coordinate 3 (-)>>>

-----------------------
VIBRATIONAL FREQUENCIES
-----------------------

Scaling factor for frequencies =  1.000000000 (already applied!)

   0:         0.00 cm**-1
   1:         0.00 cm**-1
   2:         0.00 cm**-1
   3:         0.00 cm**-1
   4:         0.00 cm**-1
   5:         0.00 cm**-1
   6:        82.36 cm**-1
   7:       104.09 cm**-1
   8:       104.25 cm**-1
   9:       421.87 cm**-1
  10:       913.71 cm**-1
  11:       913.92 cm**-1
  12:      1243.78 cm**-1
  13:      1433.51 cm**-1
  14:      1433.78 cm**-1
  15:      3097.92 cm**-1
  16:      3126.23 cm**-1
  17:      3126.58 cm**-1


------------
NORMAL MODES
------------

These modes are the cartesian displacements weighted by the diagonal matrix
M(i,i)=1/sqrt(m[i]) where m[i] is the mass of the displaced atom
Thus, these vectors are normalized but *not* orthogonal

                  0          1          2          3          4          5    
      0       0.000000   0.000000   0.000000   0.000000   0.000000   0.000000
      1       0.000000   0.000000   0.000000   0.000000   0.000000   0.000000
      2       0.000000   0.000000   0.000000   0.000000   0.000000   0.000000
      3       0.000000   0.000000   0.000000   0.000000   0.000000   0.000000
      4       0.000000   0.000000   0.000000   0.000000   0.000000   0.000000
      5       0.000000   0.000000   0.000000   0.000000   0.000000   0.000000
      6       0.000000   0.000000   0.000000   0.000000   0.000000   0.000000
      7       0.000000   0.000000   0.000000   0.000000   0.000000   0.000000
      8       0.000000   0.000000   0.000000   0.000000   0.000000   0.000000
      9       0.000000   0.000000   0.000000   0.000000   0.000000   0.000000
     10       0.000000   0.000000   0.000000   0.000000   0.000000   0.000000
     11       0.000000   0.000000   0.000000   0.000000   0.000000   0.000000
     12       0.000000   0.000000   0.000000   0.000000   0.000000   0.000000
     13       0.000000   0.000000   0.000000   0.000000   0.000000   0.000000
     14       0.000000   0.000000   0.000000   0.000000   0.000000   0.000000
     15       0.000000   0.000000   0.000000   0.000000   0.000000   0.000000
     16       0.000000   0.000000   0.000000   0.000000   0.000000   0.000000
     17       0.000000   0.000000   0.000000   0.000000   0.000000   0.000000
                  6          7          8          9         10         11    
      0       0.436982  -0.054928   0.018562  -0.672388  -0.004252  -0.012042
      1       0.048167   0.416392  -0.123111  -0.090676   0.028588   0.090561
      2      -0.008582   0.124478   0.420002   0.002819  -0.091308   0.028913
      3       0.361330   0.049753  -0.136711  -0.420306  -0.619773  -0.401741
      4       0.025674   0.489319  -0.159745  -0.010902  -0.096604  -0.245836
      5      -0.000843   0.139379   0.483707  -0.033960   0.186995  -0.103149
      6       0.358146   0.017736   0.197778  -0.414816   0.692388  -0.296553
      7       0.034109   0.486345  -0.120945  -0.047921   0.007465  -0.267431
      8      -0.022671   0.142068   0.479954   0.058898   0.145787  -0.032380
      9       0.366338  -0.255457   0.002479  -0.407521  -0.046107   0.770819
     10       0.049671   0.449574  -0.140683  -0.109022  -0.086448  -0.043352
     11      -0.004230   0.144617   0.473885  -0.019896   0.228206  -0.042118
     12       0.422442   0.004557  -0.001073   0.073784   0.000205   0.000580
     13       0.056993  -0.028745   0.008557   0.009930  -0.001376  -0.004357
     14      -0.001757  -0.008627  -0.029097  -0.000322   0.004394  -0.001391
     15      -0.472427   0.002135  -0.001189  -0.000273  -0.000013  -0.000016
     16      -0.062421  -0.021987   0.006443  -0.000014   0.000065   0.000207
     17       0.002789  -0.006539  -0.022075   0.000016  -0.000208   0.000066
                 12         13         14         15         16         17    
      0       0.085598  -0.009274   0.003470   0.034396   0.012067  -0.003321
      1       0.011437   0.070211  -0.023372   0.004943  -0.089404   0.022272
      2      -0.000424   0.023619   0.070841   0.000119  -0.022508  -0.090234
      3      -0.527962   0.200847  -0.196315  -0.204665  -0.192144   0.250008
      4      -0.202228  -0.310509  -0.363155   0.415606   0.336107  -0.468176
      5       0.104888  -0.534447  -0.264624  -0.342822  -0.320774   0.356763
      6      -0.543252   0.216440   0.211218  -0.152031  -0.086730  -0.227154
      7      -0.095956  -0.635366   0.378223   0.058055  -0.007734   0.086477
      8      -0.161556   0.145848   0.057306   0.550765   0.297066   0.713693
      9      -0.566638  -0.299272  -0.058964  -0.077344   0.135245   0.016554
     10       0.078847   0.053424   0.281932  -0.535782   0.734563   0.116895
     11       0.064476   0.088378  -0.692866  -0.209234   0.291320   0.002355
     12       0.003827  -0.000061   0.000023   0.000102   0.000001  -0.000000
     13       0.000517   0.000470  -0.000156   0.000014  -0.000006   0.000002
     14      -0.000016   0.000158   0.000472  -0.000000  -0.000002  -0.000006
     15       0.001081   0.000002  -0.000002   0.000090  -0.000002   0.000001
     16       0.000143  -0.000026   0.000009   0.000012   0.000025  -0.000006
     17      -0.000006  -0.000009  -0.000027  -0.000001   0.000006   0.000025


-----------
IR SPECTRUM  
-----------

 Mode    freq (cm**-1)   T**2         TX         TY         TZ
-------------------------------------------------------------------
   6:        82.36    0.000000  (  0.000000   0.000000   0.000000)
   7:       104.09    0.000000  (  0.000000   0.000000   0.000000)
   8:       104.25    0.000000  (  0.000000   0.000000   0.000000)
   9:       421.87    0.000000  (  0.000000   0.000000   0.000000)
  10:       913.71    0.000000  (  0.000000   0.000000   0.000000)
  11:       913.92    0.000000  (  0.000000   0.000000   0.000000)
  12:      1243.78    0.000000  (  0.000000   0.000000   0.000000)
  13:      1433.51    0.000000  (  0.000000   0.000000   0.000000)
  14:      1433.78    0.000000  (  0.000000   0.000000   0.000000)
  15:      3097.92    0.000000  (  0.000000   0.000000   0.000000)
  16:      3126.23    0.000000  (  0.000000   0.000000   0.000000)
  17:      3126.58    0.000000  (  0.000000   0.000000   0.000000)

The first frequency considered to be a vibration is 6
The total number of vibrations considered is 12


--------------------------
THERMOCHEMISTRY AT 298.15K
--------------------------

Temperature         ... 298.15 K
Pressure            ... 1.00 atm
Total Mass          ... 268.84 AMU

Throughout the following assumptions are being made:
  (1) The electronic state is orbitally nondegenerate
  (2) There are no thermally accessible electronically excited states
  (3) Hindered rotations indicated by low frequency modes are not
      treated as such but are treated as vibrations and this may
      cause some error
  (4) All equations used are the standard statistical mechanics
      equations for an ideal gas
  (5) All vibrations are strictly harmonic

freq.      82.36  E(vib)   ...       0.48 
freq.     104.09  E(vib)   ...       0.46 
freq.     104.25  E(vib)   ...       0.46 
freq.     421.87  E(vib)   ...       0.18 
freq.     913.71  E(vib)   ...       0.03 
freq.     913.92  E(vib)   ...       0.03 
freq.    1243.78  E(vib)   ...       0.01 
freq.    1433.51  E(vib)   ...       0.00 
freq.    1433.78  E(vib)   ...       0.00 
freq.    3097.92  E(vib)   ...       0.00 
freq.    3126.23  E(vib)   ...       0.00 
freq.    3126.58  E(vib)   ...       0.00 

------------
INNER ENERGY
------------

The inner energy is: U= E(el) + E(ZPE) + E(vib) + E(rot) + E(trans)
    E(el)   - is the total energy from the electronic structure calculation
              = E(kin-el) + E(nuc-el) + E(el-el) + E(nuc-nuc)
    E(ZPE)  - the the zero temperature vibrational energy from the frequency calculation
    E(vib)  - the the finite temperature correction to E(ZPE) due to population
              of excited vibrational states
    E(rot)  - is the rotational thermal energy
    E(trans)- is the translational thermal energy

Summary of contributions to the inner energy U:
Electronic energy                ...    -11.55485365 Eh
Zero point energy                ...      0.03645524 Eh      22.88 kcal/mol
Thermal vibrational correction   ...      0.00264056 Eh       1.66 kcal/mol
Thermal rotational correction    ...      0.00141627 Eh       0.89 kcal/mol
Thermal translational correction ...      0.00141627 Eh       0.89 kcal/mol
-----------------------------------------------------------------------
Total thermal energy                    -11.51292530 Eh


Summary of corrections to the electronic energy:
(perhaps to be used in another calculation)
Total thermal correction                  0.00547310 Eh       3.43 kcal/mol
Non-thermal (ZPE) correction              0.03645524 Eh      22.88 kcal/mol
-----------------------------------------------------------------------
Total correction                          0.04192834 Eh      26.31 kcal/mol


--------
ENTHALPY
--------

The enthalpy is H = U + kB*T
                kB is Boltzmann's constant
Total free energy                 ...    -11.51292530 Eh 
Thermal Enthalpy correction       ...      0.00094421 Eh       0.59 kcal/mol
-----------------------------------------------------------------------
Total Enthalpy                    ...    -11.51198110 Eh


Note: Only C1 symmetry has been detected, increase convergence thresholds 
      if your molecule has a higher symmetry. Symmetry factor of 1.0 is   
      used for the rotational entropy correction. 
 

Note: Rotational entropy computed according to Herzberg 
Infrared and Raman Spectra, Chapter V,1, Van Nostrand Reinhold, 1945 
Point Group:  C1, Symmetry Number:   1  
Rotational constants in cm-1:     5.250669     0.009222     0.009222 

Vibrational entropy computed according to the QRRHO of S. Grimme
Chem.Eur.J. 2012 18 9955


-------
ENTROPY
-------

The entropy contributions are T*S = T*(S(el)+S(vib)+S(rot)+S(trans))
     S(el)   - electronic entropy
     S(vib)  - vibrational entropy
     S(rot)  - rotational entropy
     S(trans)- translational entropy
The entropies will be listed as mutliplied by the temperature to get
units of energy

Electronic entropy                ...      0.00000000 Eh      0.00 kcal/mol
Vibrational entropy               ...      0.00510685 Eh      3.20 kcal/mol
Rotational entropy                ...      0.01315251 Eh      8.25 kcal/mol
Translational entropy             ...      0.02027183 Eh     12.72 kcal/mol
-----------------------------------------------------------------------
Final entropy term                ...      0.03853119 Eh     24.18 kcal/mol

In case the symmetry of your molecule has not been determined correctly
or in case you have a reason to use a different symmetry number we print 
out the resulting rotational entropy values for sn=1,12 :
 --------------------------------------------------------
|  sn= 1 | S(rot)=       0.01315251 Eh      8.25 kcal/mol|
|  sn= 2 | S(rot)=       0.01249805 Eh      7.84 kcal/mol|
|  sn= 3 | S(rot)=       0.01211522 Eh      7.60 kcal/mol|
|  sn= 4 | S(rot)=       0.01184359 Eh      7.43 kcal/mol|
|  sn= 5 | S(rot)=       0.01163291 Eh      7.30 kcal/mol|
|  sn= 6 | S(rot)=       0.01146076 Eh      7.19 kcal/mol|
|  sn= 7 | S(rot)=       0.01131522 Eh      7.10 kcal/mol|
|  sn= 8 | S(rot)=       0.01118914 Eh      7.02 kcal/mol|
|  sn= 9 | S(rot)=       0.01107793 Eh      6.95 kcal/mol|
|  sn=10 | S(rot)=       0.01097845 Eh      6.89 kcal/mol|
|  sn=11 | S(rot)=       0.01088846 Eh      6.83 kcal/mol|
|  sn=12 | S(rot)=       0.01080631 Eh      6.78 kcal/mol|
 --------------------------------------------------------


-------------------
GIBBS FREE ENERGY
-------------------

The Gibbs free energy is G = H - T*S

Total enthalpy                    ...    -11.51198110 Eh 
Total entropy correction          ...     -0.03853119 Eh    -24.18 kcal/mol
-----------------------------------------------------------------------
Final Gibbs free energy         ...    -11.55051228 Eh

For completeness - the Gibbs free energy minus the electronic energy
G-E(el)                           ...      0.00434136 Eh      2.72 kcal/mol


Total Time for Numerical Frequencies  :        29.968 sec

Timings for individual modules:

Sum of individual times         ...        2.002 sec (=   0.033 min)
Geometry relaxation             ...        1.132 sec (=   0.019 min)  56.5 %
XTB module                      ...        0.871 sec (=   0.015 min)  43.5 %
                             ****ORCA TERMINATED NORMALLY****
TOTAL RUN TIME: 0 days 0 hours 0 minutes 34 seconds 150 msec
