
                                 *****************
                                 * O   R   C   A *
                                 *****************

           --- An Ab Initio, DFT and Semiempirical electronic structure package ---

                  #######################################################
                  #                        -***-                        #
                  #          Department of theory and spectroscopy      #
                  #               Directorship: Frank Neese             #
                  #        Max Planck Institute fuer Kohlenforschung    #
                  #                Kaiser Wilhelm Platz 1               #
                  #                 D-45470 Muelheim/Ruhr               #
                  #                      Germany                        #
                  #                                                     #
                  #                  All rights reserved                #
                  #                        -***-                        #
                  #######################################################


                         Program Version 4.2.1 -  RELEASE  -


 With contributions from (in alphabetic order):
   Daniel Aravena         : Magnetic Suceptibility
   Michael Atanasov       : Ab Initio Ligand Field Theory (pilot matlab implementation)
   Alexander A. Auer      : GIAO ZORA, VPT2
   Ute Becker             : Parallelization
   Giovanni Bistoni       : ED, misc. LED, open-shell LED, HFLD
   Martin Brehm           : Molecular dynamics
   Dmytro Bykov           : SCF Hessian
   Vijay G. Chilkuri      : MRCI spin determinant printing, contributions to CSF-ICE
   Dipayan Datta          : RHF DLPNO-CCSD density
   Achintya Kumar Dutta   : EOM-CC, STEOM-CC
   Dmitry Ganyushin       : Spin-Orbit,Spin-Spin,Magnetic field MRCI
   Miquel Garcia          : C-PCM Hessian, Gaussian charge scheme
   Yang Guo               : DLPNO-NEVPT2, CIM, IAO-localization
   Andreas Hansen         : Spin unrestricted coupled pair/coupled cluster methods
   Benjamin Helmich-Paris : CASSCF linear response (MC-RPA)
   Lee Huntington         : MR-EOM, pCC
   Robert Izsak           : Overlap fitted RIJCOSX, COSX-SCS-MP3, EOM
   Christian Kollmar      : KDIIS, OOCD, Brueckner-CCSD(T), CCSD density
   Simone Kossmann        : Meta GGA functionals, TD-DFT gradient, OOMP2, MP2 Hessian
   Martin Krupicka        : AUTO-CI
   Lucas Lang             : DCDCAS
   Dagmar Lenk            : GEPOL surface, SMD
   Dimitrios Liakos       : Extrapolation schemes; Compound Job, initial MDCI parallelization
   Dimitrios Manganas     : Further ROCIS development; embedding schemes
   Dimitrios Pantazis     : SARC Basis sets
   Taras Petrenko         : DFT Hessian,TD-DFT gradient, ASA, ECA, R-Raman, ABS, FL, XAS/XES, NRVS
   Peter Pinski           : DLPNO-MP2, DLPNO-MP2 Gradient
   Christoph Reimann      : Effective Core Potentials
   Marius Retegan         : Local ZFS, SOC
   Christoph Riplinger    : Optimizer, TS searches, QM/MM, DLPNO-CCSD(T), (RO)-DLPNO pert. Triples
   Tobias Risthaus        : Range-separated hybrids, TD-DFT gradient, RPA, STAB
   Michael Roemelt        : Original ROCIS implementation
   Masaaki Saitow         : Open-shell DLPNO-CCSD energy and density
   Barbara Sandhoefer     : DKH picture change effects
   Avijit Sen             : IP-ROCIS
   Kantharuban Sivalingam : CASSCF convergence, NEVPT2, FIC-MRCI
   Bernardo de Souza      : ESD, SOC TD-DFT
   Georgi Stoychev        : AutoAux, RI-MP2 NMR
   Willem Van den Heuvel  : Paramagnetic NMR
   Boris Wezisla          : Elementary symmetry handling
   Frank Wennmohs         : Technical directorship


 We gratefully acknowledge several colleagues who have allowed us to
 interface, adapt or use parts of their codes:
   Stefan Grimme, W. Hujo, H. Kruse,             : VdW corrections, initial TS optimization,
                  C. Bannwarth                     DFT functionals, gCP, sTDA/sTD-DF
   Ed Valeev, F. Pavosevic, A. Kumar             : LibInt (2-el integral package), F12 methods
   Garnet Chan, S. Sharma, J. Yang, R. Olivares  : DMRG
   Ulf Ekstrom                                   : XCFun DFT Library
   Mihaly Kallay                                 : mrcc  (arbitrary order and MRCC methods)
   Andreas Klamt, Michael Diedenhofen            : otool_cosmo (COSMO solvation model)
   Jiri Pittner, Ondrej Demel                    : Mk-CCSD
   Frank Weinhold                                : gennbo (NPA and NBO analysis)
   Christopher J. Cramer and Donald G. Truhlar   : smd solvation model
   Lars Goerigk                                  : TD-DFT with DH, B97 family of functionals
   V. Asgeirsson, H. Jonsson                     : NEB implementation
   FAccTs GmbH                                   : IRC, NEB, NEB-TS, Multilevel, MM, QM/MM, CI optimization
   S Lehtola, MJT Oliveira, MAL Marques          : LibXC Library


 Your calculation uses the libint2 library for the computation of 2-el integrals
 For citations please refer to: http://libint.valeyev.net

 Your ORCA version has been built with support for libXC version: 4.2.3
 For citations please refer to: https://tddft.org/programs/libxc/

 This ORCA versions uses:
   CBLAS   interface :  Fast vector & matrix operations
   LAPACKE interface :  Fast linear algebra routines
   SCALAPACK package :  Parallel linear algebra routines




***************************************
The coordinates will be read from file: init.xyz
***************************************


Your calculation utilizes the semiempirical GFN2-xTB method
Please cite in your paper:
C. Bannwarth, Ehlert S., S. Grimme,  J. Chem. Theory Comput., 15, (2019), 1652.
   

----- Orbital basis set information -----
Your calculation utilizes the basis: def2-SVP
   F. Weigend and R. Ahlrichs, Phys. Chem. Chem. Phys. 7, 3297 (2005).

cite the ECPs for I  [Def2-ECP] as follows:
Ce-Yb(ecp-28): M. Dolg, H. Stoll, H.Preuss, J. Chem. Phys., 1989, 90, 1730-1734.
Y-Cd(ecp-28), Hf-Hg(ecp-46): D. Andrae,U. Haeussermann, M. Dolg, H. Stoll, H. Preuss, Theor. Chim. Acta, 1990, 77, 123-141.
In-Sb(ecp-28), Tl-Bi(ecp-46): B. Metz, H. Stoll, M. Dolg, J. Chem. Phys., 2000, 113, 2563-2569.
Te-Xe(ecp-28), Po-Rn(ecp-46): K. A. Peterson, D. Figgen, E. Goll, H. Stoll, M. Dolg, J. Chem. Phys., 2003, 119, 11113-11123.
Rb(ecp-28), Cs(ecp-46): T. Leininger, A. Nicklass, W. Kuechle, H. Stoll, M. Dolg, A. Bergner, Chem. Phys. Lett., 1996, 255, 274-280.
Sr(ecp-28), Ba(ecp-46): M. Kaupp, P. V. Schleyer, H. Stoll and H. Preuss, J. Chem. Phys., 1991, 94, 1360-1366.
La(ecp-46): M. Dolg, H. Stoll, A. Savin, H. Preuss, Theor. Chim. Acta, 1989, 75, 173-194.
Lu(ecp-28): X. Cao, M. Dolg, J. Chem. Phys., 2001, 115, 7348-7355.

ECP parameters for I  [Def2-ECP] have been obtained from:
TURBOMOLE (7.0.2)

================================================================================
                                        WARNINGS
                       Please study these warnings very carefully!
================================================================================


WARNING: The environment variable RSH_COMMAND is not set!
  ===> : All Displacements for the Numerical Hessian calculation
         will be started on localhost

WARNING: Geometry Optimization
  ===> : Switching off AutoStart
         For restart on a previous wavefunction, please use MOREAD

WARNING: Found dipole moment calculation with XTB calculation
  ===> : Switching off dipole moment calculation


INFO   : the flag for use of LIBINT has been found!

================================================================================
                                       INPUT FILE
================================================================================
NAME = opt+numfreq.inp
|  1> ! xTB2 Opt NumFreq
|  2> 
|  3> *xyzfile -1 1 init.xyz
|  4> 
|  5> %pal
|  6>  nprocs 2
|  7> end
|  8> 
|  9>                          ****END OF INPUT****
================================================================================

                       *****************************
                       * Geometry Optimization Run *
                       *****************************

Geometry optimization settings:
Update method            Update   .... BFGS
Choice of coordinates    CoordSys .... Z-matrix Internals
Initial Hessian          InHess   .... Almoef's Model

Convergence Tolerances:
Energy Change            TolE     ....  5.0000e-06 Eh
Max. Gradient            TolMAXG  ....  3.0000e-04 Eh/bohr
RMS Gradient             TolRMSG  ....  1.0000e-04 Eh/bohr
Max. Displacement        TolMAXD  ....  4.0000e-03 bohr
RMS Displacement         TolRMSD  ....  2.0000e-03 bohr
Strict Convergence                ....  False
------------------------------------------------------------------------------
                        ORCA OPTIMIZATION COORDINATE SETUP
------------------------------------------------------------------------------

The optimization will be done in new redundant internal coordinates
Making redundant internal coordinates   ...  (new redundants) done
Evaluating the initial hessian          ...  (Almloef) done
Evaluating the coordinates              ...  done
Calculating the B-matrix                .... done
Calculating the G-matrix                .... done
Diagonalizing the G-matrix              .... done
The first mode is                       ....    5
The number of degrees of freedom        ....   12

    -----------------------------------------------------------------
                    Redundant Internal Coordinates


    -----------------------------------------------------------------
         Definition                    Initial Value    Approx d2E/dq
    -----------------------------------------------------------------
      1. B(H   1,C   0)                  1.0776         0.376919   
      2. B(H   2,C   0)                  1.0776         0.376932   
      3. B(H   3,C   0)                  1.0776         0.376868   
      4. B(I   4,C   0)                  2.1975         0.108108   
      5. B(I   5,H   1)                  3.0280         0.000979   
      6. B(I   5,H   2)                  3.0273         0.000982   
      7. B(I   5,C   0)                  3.1636         0.003109   
      8. B(I   5,H   3)                  3.0309         0.000969   
      9. A(H   1,C   0,H   3)          111.7943         0.295047   
     10. A(H   2,C   0,H   3)          111.8001         0.295049   
     11. A(H   1,C   0,I   4)          107.0302         0.283837   
     12. A(H   2,C   0,I   4)          107.0383         0.283838   
     13. A(H   3,C   0,I   4)          106.9981         0.283831   
     14. A(H   1,C   0,I   5)           72.9384         0.176263   
     15. A(H   2,C   0,I   5)           72.9014         0.176264   
     16. A(H   3,C   0,I   5)           73.0937         0.176260   
     17. A(H   1,C   0,H   2)          111.8214         0.295055   
    -----------------------------------------------------------------

Number of atoms                         .... 6
Number of degrees of freedom            .... 17

         *************************************************************
         *                GEOMETRY OPTIMIZATION CYCLE   1            *
         *************************************************************
      -----------------------------------------------------------      
     |                   =====================                   |     
     |                           x T B                           |     
     |                   =====================                   |     
     |                         S. Grimme                         |     
     |          Mulliken Center for Theoretical Chemistry        |     
     |                    University of Bonn                     |     
      -----------------------------------------------------------      

   * xtb version 6.4.0 (d4b70c2) compiled by 'ehlert@majestix' on 2021-02-01

   xtb is free software: you can redistribute it and/or modify it under
   the terms of the GNU Lesser General Public License as published by
   the Free Software Foundation, either version 3 of the License, or
   (at your option) any later version.
   
   xtb is distributed in the hope that it will be useful,
   but WITHOUT ANY WARRANTY; without even the implied warranty of
   MERCHANTABILITY or FITNESS FOR A PARTICULAR PURPOSE.  See the
   GNU Lesser General Public License for more details.
   
   Cite this work as:
   * C. Bannwarth, E. Caldeweyher, S. Ehlert, A. Hansen, P. Pracht,
     J. Seibert, S. Spicher, S. Grimme, WIREs Comput. Mol. Sci., 2020,
     e01493. DOI: 10.1002/wcms.1493
   
   for GFN2-xTB:
   * C. Bannwarth, S. Ehlert and S. Grimme., J. Chem. Theory Comput., 2019,
     15, 1652-1671. DOI: 10.1021/acs.jctc.8b01176
   for GFN1-xTB:
   * S. Grimme, C. Bannwarth, P. Shushkov, J. Chem. Theory Comput., 2017,
     13, 1989-2009. DOI: 10.1021/acs.jctc.7b00118
   for GFN0-xTB:
   * P. Pracht, E. Caldeweyher, S. Ehlert, S. Grimme, ChemRxiv, 2019, preprint.
     DOI: 10.26434/chemrxiv.8326202.v1
   for GFN-FF:
   * S. Spicher and S. Grimme, Angew. Chem. Int. Ed., 2020, 59, 15665-15673.
     DOI: 10.1002/anie.202004239
   
   for DFT-D4:
   * E. Caldeweyher, C. Bannwarth and S. Grimme, J. Chem. Phys., 2017,
     147, 034112. DOI: 10.1063/1.4993215
   * E. Caldeweyher, S. Ehlert, A. Hansen, H. Neugebauer, S. Spicher,
     C. Bannwarth and S. Grimme, J. Chem. Phys., 2019, 150, 154122.
     DOI: 10.1063/1.5090222
   * E. Caldeweyher, J.-M. Mewes, S. Ehlert and S. Grimme, Phys. Chem. Chem. Phys.
     2020, 22, 8499-8512. DOI: 10.1039/D0CP00502A
   
   for sTDA-xTB:
   * S. Grimme and C. Bannwarth, J. Chem. Phys., 2016, 145, 054103.
     DOI: 10.1063/1.4959605
   
   in the mass-spec context:
   * V. Asgeirsson, C. Bauer and S. Grimme, Chem. Sci., 2017, 8, 4879.
     DOI: 10.1039/c7sc00601b
   * J. Koopman and S. Grimme, ACS Omega 2019, 4, 12, 15120-15133.
     DOI: 10.1021/acsomega.9b02011
   
   for metadynamics refer to:
   * S. Grimme, J. Chem. Theory Comput., 2019, 155, 2847-2862
     DOI: 10.1021/acs.jctc.9b00143
   
   with help from (in alphabetical order)
   P. Atkinson, C. Bannwarth, F. Bohle, G. Brandenburg, E. Caldeweyher
   M. Checinski, S. Dohm, S. Ehlert, S. Ehrlich, I. Gerasimov, J. Koopman
   C. Lavinge, S. Lehtola, F. März, M. Müller, F. Musil, H. Neugebauer
   J. Pisarek, P. Pracht, J. Seibert, P. Shushkov, S. Spicher, M. Stahn
   T. Strunk, J. Stückrath, T. Rose, and J. Unsleber
   
 * started run on 2022/05/09 at 10:46:20.089     

           -------------------------------------------------
          |                Calculation Setup                |
           -------------------------------------------------

          program call               : /opt/orca/otool_xtb opt+numfreq_XTB.xyz --grad -c -1 -u 0 -P 2 --namespace opt+numfreq
          calculation namespace      : opt+numfreq
          coordinate file            : opt+numfreq_XTB.xyz
          omp threads                :                     2
          number of atoms            :                     6
          number of electrons        :                    22
          charge                     :                    -1
          spin                       :                   0.0
          first test random number   :      0.27396983201030

   ID    Z sym.   atoms
    1    6 C      1
    2    1 H      2-4
    3   53 I      5, 6

molecular fragmentation (1/2 indicates fragments):
111112
# atoms in fragment 1/2:     5     1
 fragment masses (1/2) :      141.94      126.90
CMA distance (Bohr)    :   9.678
constraining FC (au)   :  0.0500
########################################################################
[WARNING] Please study the warnings concerning your input carefully
-1- prog_main_parseArguments: Process number higher than OMP_NUM_THREADS, I hope you know what you are doing.
########################################################################

           -------------------------------------------------
          |                 G F N 2 - x T B                 |
           -------------------------------------------------

        Reference                      10.1021/acs.jctc.8b01176
      * Hamiltonian:
        H0-scaling (s, p, d)           1.850000    2.230000    2.230000
        zeta-weighting                 0.500000
      * Dispersion:
        s8                             2.700000
        a1                             0.520000
        a2                             5.000000
        s9                             5.000000
      * Repulsion:
        kExp                           1.500000    1.000000
        rExp                           1.000000
      * Coulomb:
        alpha                          2.000000
        third order                    shell-resolved
        anisotropic                    true
        a3                             3.000000
        a5                             4.000000
        cn-shift                       1.200000
        cn-exp                         4.000000
        max-rad                        5.000000


          ...................................................
          :                      SETUP                      :
          :.................................................:
          :  # basis functions                  27          :
          :  # atomic orbitals                  25          :
          :  # shells                           11          :
          :  # electrons                        22          :
          :  max. iterations                   250          :
          :  Hamiltonian                  GFN2-xTB          :
          :  restarted?                      false          :
          :  GBSA solvation                  false          :
          :  PC potential                    false          :
          :  electronic temp.          300.0000000     K    :
          :  accuracy                    1.0000000          :
          :  -> integral cutoff          0.2500000E+02      :
          :  -> integral neglect         0.1000000E-07      :
          :  -> SCF convergence          0.1000000E-05 Eh   :
          :  -> wf. convergence          0.1000000E-03 e    :
          :  Broyden damping             0.4000000          :
          ...................................................

 iter      E             dE          RMSdq      gap      omega  full diag
   1    -11.6031076 -0.116031E+02  0.113E+01    3.11       0.0  T
   2    -11.6128508 -0.974323E-02  0.526E+00    2.17       1.0  T
   3    -11.6144666 -0.161583E-02  0.162E+00    1.86       1.0  T
   4    -11.6146611 -0.194494E-03  0.120E+00    2.06       1.0  T
   5    -11.6150776 -0.416513E-03  0.548E-01    2.00       1.0  T
   6    -11.6151504 -0.727439E-04  0.271E-01    1.85       1.0  T
   7    -11.6151468  0.356054E-05  0.279E-01    1.85       1.0  T
   8    -11.6152009 -0.541017E-04  0.215E-02    1.92       1.9  T
   9    -11.6152005  0.466123E-06  0.314E-02    1.93       1.3  T
  10    -11.6152011 -0.609900E-06  0.247E-03    1.92      16.5  T
  11    -11.6152011 -0.283295E-08  0.913E-04    1.92      44.7  T
  12    -11.6152011 -0.729992E-09  0.849E-05    1.92     481.1  T

   *** convergence criteria satisfied after 12 iterations ***

         #    Occupation            Energy/Eh            Energy/eV
      -------------------------------------------------------------
         1        2.0000           -0.6087628             -16.5653
       ...           ...                  ...                  ...
         5        2.0000           -0.3710179             -10.0959
         6        2.0000           -0.3501755              -9.5288
         7        2.0000           -0.2841351              -7.7317
         8        2.0000           -0.2841307              -7.7316
         9        2.0000           -0.1797717              -4.8918
        10        2.0000           -0.1742811              -4.7424
        11        2.0000           -0.1742802              -4.7424 (HOMO)
        12                         -0.1036061              -2.8193 (LUMO)
        13                          0.1591126               4.3297
        14                          0.1591218               4.3299
        15                          0.1843612               5.0167
        16                          0.1843827               5.0173
       ...                                ...                  ...
        25                          0.4618080              12.5664
      -------------------------------------------------------------
                  HL-Gap            0.0706741 Eh            1.9231 eV
             Fermi-level           -0.1389431 Eh           -3.7808 eV

 SCC (total)                   0 d,  0 h,  0 min,  0.008 sec
 SCC setup                      ...        0 min,  0.000 sec (  3.374%)
 Dispersion                     ...        0 min,  0.000 sec (  1.765%)
 classical contributions        ...        0 min,  0.000 sec (  0.847%)
 integral evaluation            ...        0 min,  0.002 sec ( 25.050%)
 iterations                     ...        0 min,  0.004 sec ( 47.757%)
 molecular gradient             ...        0 min,  0.002 sec ( 19.300%)
 printout                       ...        0 min,  0.000 sec (  1.302%)

         :::::::::::::::::::::::::::::::::::::::::::::::::::::
         ::                     SUMMARY                     ::
         :::::::::::::::::::::::::::::::::::::::::::::::::::::
         :: total energy             -11.554853648233 Eh    ::
         :: gradient norm              0.000073362657 Eh/a0 ::
         :: HOMO-LUMO gap              1.923140750333 eV    ::
         ::.................................................::
         :: SCC energy               -11.615201081309 Eh    ::
         :: -> isotropic ES            0.140093310230 Eh    ::
         :: -> anisotropic ES         -0.004260416413 Eh    ::
         :: -> anisotropic XC         -0.000640873343 Eh    ::
         :: -> dispersion             -0.003714407095 Eh    ::
         :: repulsion energy           0.060348666442 Eh    ::
         :: add. restraining           0.000000000000 Eh    ::
         :: total charge              -1.000000000000 e     ::
         :::::::::::::::::::::::::::::::::::::::::::::::::::::

           -------------------------------------------------
          |                Property Printout                |
           -------------------------------------------------

    * Orbital Energies and Occupations

         #    Occupation            Energy/Eh            Energy/eV
      -------------------------------------------------------------
         1        2.0000           -0.6087628             -16.5653
         2        2.0000           -0.4745034             -12.9119
         3        2.0000           -0.4436035             -12.0711
         4        2.0000           -0.3710204             -10.0960
         5        2.0000           -0.3710179             -10.0959
         6        2.0000           -0.3501755              -9.5288
         7        2.0000           -0.2841351              -7.7317
         8        2.0000           -0.2841307              -7.7316
         9        2.0000           -0.1797717              -4.8918
        10        2.0000           -0.1742811              -4.7424
        11        2.0000           -0.1742802              -4.7424 (HOMO)
        12                         -0.1036061              -2.8193 (LUMO)
        13                          0.1591126               4.3297
        14                          0.1591218               4.3299
        15                          0.1843612               5.0167
        16                          0.1843827               5.0173
        17                          0.2825508               7.6886
        18                          0.3097967               8.4300
        19                          0.3099475               8.4341
        20                          0.3669373               9.9849
        21                          0.3669445               9.9851
        22                          0.3987212              10.8498
       ...                                ...                  ...
        25                          0.4618080              12.5664
      -------------------------------------------------------------
                  HL-Gap            0.0706741 Eh            1.9231 eV
             Fermi-level           -0.1389431 Eh           -3.7808 eV

     #   Z          covCN         q      C6AA      α(0)
     1   6 C        3.786    -0.020    20.945     6.519
     2   1 H        0.931     0.060     2.194     2.316
     3   1 H        0.931     0.060     2.193     2.316
     4   1 H        0.931     0.060     2.196     2.317
     5  53 I        0.964    -0.276   392.760    34.211
     6  53 I        0.058    -0.885   422.787    35.570

 Mol. C6AA /au·bohr⁶  :       2433.247016
 Mol. C8AA /au·bohr⁸  :     182040.885372
 Mol. α(0) /au        :         83.248160


Wiberg/Mayer (AO) data.
largest (>0.10) Wiberg bond orders for each atom

 ---------------------------------------------------------------------------
     #   Z sym  total        # sym  WBO       # sym  WBO       # sym  WBO
 ---------------------------------------------------------------------------
     1   6 C    3.941 --     4 H    0.999     2 H    0.998     3 H    0.998
                             5 I    0.868
     2   1 H    0.996 --     1 C    0.998
     3   1 H    0.996 --     1 C    0.998
     4   1 H    0.996 --     1 C    0.999
     5  53 I    0.869 --     1 C    0.868
     6  53 I    0.070 -- ---------------------------------------------------------------------------

Topologies differ in total number of bonds
Writing topology from bond orders to xtbtopo.mol

molecular dipole:
                 x           y           z       tot (Debye)
 q only:        7.027      -1.495      -0.020
   full:        6.140      -1.614      -0.016      16.137
molecular quadrupole (traceless):
                xx          xy          yy          xz          yz          zz
 q only:      -68.104      11.756      32.108       0.360      -0.024      35.996
  q+dip:      -73.779       7.316      34.430       0.428      -0.000      39.349
   full:      -71.303       7.818      33.226       0.411      -0.002      38.077


           -------------------------------------------------
          | TOTAL ENERGY              -11.554853648233 Eh   |
          | GRADIENT NORM               0.000073362657 Eh/α |
          | HOMO-LUMO GAP               1.923140750333 eV   |
           -------------------------------------------------

------------------------------------------------------------------------
 * finished run on 2022/05/09 at 10:46:20.117     
------------------------------------------------------------------------
 total:
 * wall-time:     0 d,  0 h,  0 min,  0.028 sec
 *  cpu-time:     0 d,  0 h,  0 min,  0.030 sec
 * ratio c/w:     1.082 speedup
 SCF:
 * wall-time:     0 d,  0 h,  0 min,  0.009 sec
 *  cpu-time:     0 d,  0 h,  0 min,  0.008 sec
 * ratio c/w:     0.957 speedup


-------------------------   --------------------
FINAL SINGLE POINT ENERGY       -11.554853648230
-------------------------   --------------------

------------------------------------------------------------------------------
                         ORCA GEOMETRY RELAXATION STEP
------------------------------------------------------------------------------

Reading the OPT-File                    .... done
Getting information on internals        .... done
Copying old internal coords+grads       .... done
Making the new internal coordinates     .... (new redundants).... done
Validating the new internal coordinates .... (new redundants).... done
Calculating the B-matrix                .... done
Calculating the G,G- and P matrices     .... done
Transforming gradient to internals      .... done
Projecting the internal gradient        .... done
Number of atoms                         ....   6
Number of internal coordinates          ....  17
Current Energy                          ....   -11.554853648 Eh
Current gradient norm                   ....     0.000073363 Eh/bohr
Maximum allowed component of the step   ....  0.300
Current trust radius                    ....  0.300
Evaluating the initial hessian          ....  (Almloef) done
Projecting the Hessian                  .... done
Forming the augmented Hessian           .... done
Diagonalizing the augmented Hessian     .... done
Last element of RFO vector              ....  0.999999706
Lowest eigenvalues of augmented Hessian:
 -0.000000031  0.001558935  0.035095160  0.035098306  0.108107923
Length of the computed step             ....  0.000767129
The final length of the internal step   ....  0.000767129
Converting the step to cartesian space:
 Initial RMS(Int)=    0.0001860560
Transforming coordinates:
 Iter   0:  RMS(Cart)=    0.0001930535 RMS(Int)=    0.0001860590
 Iter   1:  RMS(Cart)=    0.0000000163 RMS(Int)=    0.0000000201
done
Storing new coordinates                 .... done

                                .--------------------.
          ----------------------|Geometry convergence|-------------------------
          Item                value                   Tolerance       Converged
          ---------------------------------------------------------------------
          RMS gradient        0.0000156798            0.0001000000      YES
          MAX gradient        0.0000377886            0.0003000000      YES
          RMS step            0.0001860560            0.0020000000      YES
          MAX step            0.0005817725            0.0040000000      YES
          ........................................................
          Max(Bonds)      0.0003      Max(Angles)    0.02
          Max(Dihed)        0.00      Max(Improp)    0.00
          ---------------------------------------------------------------------

                    ***********************HURRAY********************
                    ***        THE OPTIMIZATION HAS CONVERGED     ***
                    *************************************************


    ---------------------------------------------------------------------------
                         Redundant Internal Coordinates

                          --- Optimized Parameters ---  
                            (Angstroem and degrees)

        Definition                    OldVal   dE/dq     Step     FinalVal
    ----------------------------------------------------------------------------
     1. B(H   1,C   0)                1.0776  0.000009 -0.0000    1.0776   
     2. B(H   2,C   0)                1.0776  0.000011 -0.0000    1.0776   
     3. B(H   3,C   0)                1.0776  0.000005 -0.0000    1.0776   
     4. B(I   4,C   0)                2.1975 -0.000012  0.0001    2.1976   
     5. B(I   5,H   1)                3.0280 -0.000005  0.0001    3.0281   
     6. B(I   5,H   2)                3.0273 -0.000010  0.0001    3.0275   
     7. B(I   5,C   0)                3.1636 -0.000005 -0.0000    3.1636   
     8. B(I   5,H   3)                3.0309  0.000020 -0.0003    3.0306   
     9. A(H   1,C   0,H   3)          111.79 -0.000021    0.00    111.80   
    10. A(H   2,C   0,H   3)          111.80 -0.000009    0.00    111.80   
    11. A(H   1,C   0,I   4)          107.03  0.000006   -0.00    107.03   
    12. A(H   2,C   0,I   4)          107.04  0.000015   -0.00    107.04   
    13. A(H   3,C   0,I   4)          107.00 -0.000029    0.01    107.00   
    14. A(H   1,C   0,I   5)           72.94 -0.000000    0.00     72.94   
    15. A(H   2,C   0,I   5)           72.90 -0.000003    0.01     72.91   
    16. A(H   3,C   0,I   5)           73.09  0.000012   -0.02     73.08   
    17. A(H   1,C   0,H   2)          111.82  0.000038   -0.01    111.81   
    ----------------------------------------------------------------------------
                 *******************************************************
                 *** FINAL ENERGY EVALUATION AT THE STATIONARY POINT ***
                 ***               (AFTER    1 CYCLES)               ***
                 *******************************************************
      -----------------------------------------------------------      
     |                   =====================                   |     
     |                           x T B                           |     
     |                   =====================                   |     
     |                         S. Grimme                         |     
     |          Mulliken Center for Theoretical Chemistry        |     
     |                    University of Bonn                     |     
      -----------------------------------------------------------      

   * xtb version 6.4.0 (d4b70c2) compiled by 'ehlert@majestix' on 2021-02-01

   xtb is free software: you can redistribute it and/or modify it under
   the terms of the GNU Lesser General Public License as published by
   the Free Software Foundation, either version 3 of the License, or
   (at your option) any later version.
   
   xtb is distributed in the hope that it will be useful,
   but WITHOUT ANY WARRANTY; without even the implied warranty of
   MERCHANTABILITY or FITNESS FOR A PARTICULAR PURPOSE.  See the
   GNU Lesser General Public License for more details.
   
   Cite this work as:
   * C. Bannwarth, E. Caldeweyher, S. Ehlert, A. Hansen, P. Pracht,
     J. Seibert, S. Spicher, S. Grimme, WIREs Comput. Mol. Sci., 2020,
     e01493. DOI: 10.1002/wcms.1493
   
   for GFN2-xTB:
   * C. Bannwarth, S. Ehlert and S. Grimme., J. Chem. Theory Comput., 2019,
     15, 1652-1671. DOI: 10.1021/acs.jctc.8b01176
   for GFN1-xTB:
   * S. Grimme, C. Bannwarth, P. Shushkov, J. Chem. Theory Comput., 2017,
     13, 1989-2009. DOI: 10.1021/acs.jctc.7b00118
   for GFN0-xTB:
   * P. Pracht, E. Caldeweyher, S. Ehlert, S. Grimme, ChemRxiv, 2019, preprint.
     DOI: 10.26434/chemrxiv.8326202.v1
   for GFN-FF:
   * S. Spicher and S. Grimme, Angew. Chem. Int. Ed., 2020, 59, 15665-15673.
     DOI: 10.1002/anie.202004239
   
   for DFT-D4:
   * E. Caldeweyher, C. Bannwarth and S. Grimme, J. Chem. Phys., 2017,
     147, 034112. DOI: 10.1063/1.4993215
   * E. Caldeweyher, S. Ehlert, A. Hansen, H. Neugebauer, S. Spicher,
     C. Bannwarth and S. Grimme, J. Chem. Phys., 2019, 150, 154122.
     DOI: 10.1063/1.5090222
   * E. Caldeweyher, J.-M. Mewes, S. Ehlert and S. Grimme, Phys. Chem. Chem. Phys.
     2020, 22, 8499-8512. DOI: 10.1039/D0CP00502A
   
   for sTDA-xTB:
   * S. Grimme and C. Bannwarth, J. Chem. Phys., 2016, 145, 054103.
     DOI: 10.1063/1.4959605
   
   in the mass-spec context:
   * V. Asgeirsson, C. Bauer and S. Grimme, Chem. Sci., 2017, 8, 4879.
     DOI: 10.1039/c7sc00601b
   * J. Koopman and S. Grimme, ACS Omega 2019, 4, 12, 15120-15133.
     DOI: 10.1021/acsomega.9b02011
   
   for metadynamics refer to:
   * S. Grimme, J. Chem. Theory Comput., 2019, 155, 2847-2862
     DOI: 10.1021/acs.jctc.9b00143
   
   with help from (in alphabetical order)
   P. Atkinson, C. Bannwarth, F. Bohle, G. Brandenburg, E. Caldeweyher
   M. Checinski, S. Dohm, S. Ehlert, S. Ehrlich, I. Gerasimov, J. Koopman
   C. Lavinge, S. Lehtola, F. März, M. Müller, F. Musil, H. Neugebauer
   J. Pisarek, P. Pracht, J. Seibert, P. Shushkov, S. Spicher, M. Stahn
   T. Strunk, J. Stückrath, T. Rose, and J. Unsleber
   
 * started run on 2022/05/09 at 10:46:20.174     

           -------------------------------------------------
          |                Calculation Setup                |
           -------------------------------------------------

          program call               : /opt/orca/otool_xtb opt+numfreq_XTB.xyz --grad -c -1 -u 0 -P 2 --namespace opt+numfreq
          calculation namespace      : opt+numfreq
          coordinate file            : opt+numfreq_XTB.xyz
          omp threads                :                     2
          number of atoms            :                     6
          number of electrons        :                    22
          charge                     :                    -1
          spin                       :                   0.0
          first test random number   :      0.08725524200904

   ID    Z sym.   atoms
    1    6 C      1
    2    1 H      2-4
    3   53 I      5, 6

molecular fragmentation (1/2 indicates fragments):
111112
# atoms in fragment 1/2:     5     1
 fragment masses (1/2) :      141.94      126.90
CMA distance (Bohr)    :   9.679
constraining FC (au)   :  0.0500
########################################################################
[WARNING] Please study the warnings concerning your input carefully
-1- prog_main_parseArguments: Process number higher than OMP_NUM_THREADS, I hope you know what you are doing.
########################################################################

           -------------------------------------------------
          |                 G F N 2 - x T B                 |
           -------------------------------------------------

        Reference                      10.1021/acs.jctc.8b01176
      * Hamiltonian:
        H0-scaling (s, p, d)           1.850000    2.230000    2.230000
        zeta-weighting                 0.500000
      * Dispersion:
        s8                             2.700000
        a1                             0.520000
        a2                             5.000000
        s9                             5.000000
      * Repulsion:
        kExp                           1.500000    1.000000
        rExp                           1.000000
      * Coulomb:
        alpha                          2.000000
        third order                    shell-resolved
        anisotropic                    true
        a3                             3.000000
        a5                             4.000000
        cn-shift                       1.200000
        cn-exp                         4.000000
        max-rad                        5.000000


          ...................................................
          :                      SETUP                      :
          :.................................................:
          :  # basis functions                  27          :
          :  # atomic orbitals                  25          :
          :  # shells                           11          :
          :  # electrons                        22          :
          :  max. iterations                   250          :
          :  Hamiltonian                  GFN2-xTB          :
          :  restarted?                      false          :
          :  GBSA solvation                  false          :
          :  PC potential                    false          :
          :  electronic temp.          300.0000000     K    :
          :  accuracy                    1.0000000          :
          :  -> integral cutoff          0.2500000E+02      :
          :  -> integral neglect         0.1000000E-07      :
          :  -> SCF convergence          0.1000000E-05 Eh   :
          :  -> wf. convergence          0.1000000E-03 e    :
          :  Broyden damping             0.4000000          :
          ...................................................

 iter      E             dE          RMSdq      gap      omega  full diag
   1    -11.6031121 -0.116031E+02  0.113E+01    3.11       0.0  T
   2    -11.6128545 -0.974237E-02  0.526E+00    2.17       1.0  T
   3    -11.6144700 -0.161545E-02  0.162E+00    1.86       1.0  T
   4    -11.6146645 -0.194588E-03  0.120E+00    2.06       1.0  T
   5    -11.6150808 -0.416289E-03  0.548E-01    2.00       1.0  T
   6    -11.6151536 -0.727444E-04  0.271E-01    1.85       1.0  T
   7    -11.6151500  0.361303E-05  0.279E-01    1.85       1.0  T
   8    -11.6152041 -0.541423E-04  0.215E-02    1.92       1.9  T
   9    -11.6152036  0.466395E-06  0.314E-02    1.93       1.3  T
  10    -11.6152043 -0.610156E-06  0.248E-03    1.92      16.5  T
  11    -11.6152043 -0.283826E-08  0.914E-04    1.92      44.7  T
  12    -11.6152043 -0.730596E-09  0.848E-05    1.92     481.3  T

   *** convergence criteria satisfied after 12 iterations ***

         #    Occupation            Energy/Eh            Energy/eV
      -------------------------------------------------------------
         1        2.0000           -0.6087561             -16.5651
       ...           ...                  ...                  ...
         5        2.0000           -0.3710115             -10.0957
         6        2.0000           -0.3501698              -9.5286
         7        2.0000           -0.2841305              -7.7316
         8        2.0000           -0.2841276              -7.7315
         9        2.0000           -0.1797760              -4.8920
        10        2.0000           -0.1742847              -4.7425
        11        2.0000           -0.1742839              -4.7425 (HOMO)
        12                         -0.1036159              -2.8195 (LUMO)
        13                          0.1591230               4.3300
        14                          0.1591291               4.3301
        15                          0.1843655               5.0168
        16                          0.1843829               5.0173
       ...                                ...                  ...
        25                          0.4617668              12.5653
      -------------------------------------------------------------
                  HL-Gap            0.0706680 Eh            1.9230 eV
             Fermi-level           -0.1389499 Eh           -3.7810 eV

 SCC (total)                   0 d,  0 h,  0 min,  0.009 sec
 SCC setup                      ...        0 min,  0.002 sec ( 18.791%)
 Dispersion                     ...        0 min,  0.000 sec (  4.125%)
 classical contributions        ...        0 min,  0.000 sec (  0.826%)
 integral evaluation            ...        0 min,  0.001 sec ( 14.193%)
 iterations                     ...        0 min,  0.004 sec ( 40.737%)
 molecular gradient             ...        0 min,  0.002 sec ( 18.636%)
 printout                       ...        0 min,  0.000 sec (  1.954%)

         :::::::::::::::::::::::::::::::::::::::::::::::::::::
         ::                     SUMMARY                     ::
         :::::::::::::::::::::::::::::::::::::::::::::::::::::
         :: total energy             -11.554853675198 Eh    ::
         :: gradient norm              0.000054167154 Eh/a0 ::
         :: HOMO-LUMO gap              1.922975167134 eV    ::
         ::.................................................::
         :: SCC energy               -11.615204255161 Eh    ::
         :: -> isotropic ES            0.140090012401 Eh    ::
         :: -> anisotropic ES         -0.004259688098 Eh    ::
         :: -> anisotropic XC         -0.000639466832 Eh    ::
         :: -> dispersion             -0.003714383078 Eh    ::
         :: repulsion energy           0.060351813462 Eh    ::
         :: add. restraining           0.000000000000 Eh    ::
         :: total charge              -1.000000000000 e     ::
         :::::::::::::::::::::::::::::::::::::::::::::::::::::

           -------------------------------------------------
          |                Property Printout                |
           -------------------------------------------------

    * Orbital Energies and Occupations

         #    Occupation            Energy/Eh            Energy/eV
      -------------------------------------------------------------
         1        2.0000           -0.6087561             -16.5651
         2        2.0000           -0.4745021             -12.9119
         3        2.0000           -0.4436099             -12.0712
         4        2.0000           -0.3710201             -10.0960
         5        2.0000           -0.3710115             -10.0957
         6        2.0000           -0.3501698              -9.5286
         7        2.0000           -0.2841305              -7.7316
         8        2.0000           -0.2841276              -7.7315
         9        2.0000           -0.1797760              -4.8920
        10        2.0000           -0.1742847              -4.7425
        11        2.0000           -0.1742839              -4.7425 (HOMO)
        12                         -0.1036159              -2.8195 (LUMO)
        13                          0.1591230               4.3300
        14                          0.1591291               4.3301
        15                          0.1843655               5.0168
        16                          0.1843829               5.0173
        17                          0.2825787               7.6894
        18                          0.3098029               8.4302
        19                          0.3099448               8.4340
        20                          0.3669299               9.9847
        21                          0.3669361               9.9848
        22                          0.3987173              10.8496
       ...                                ...                  ...
        25                          0.4617668              12.5653
      -------------------------------------------------------------
                  HL-Gap            0.0706680 Eh            1.9230 eV
             Fermi-level           -0.1389499 Eh           -3.7810 eV

     #   Z          covCN         q      C6AA      α(0)
     1   6 C        3.786    -0.020    20.945     6.519
     2   1 H        0.931     0.060     2.194     2.316
     3   1 H        0.931     0.060     2.193     2.316
     4   1 H        0.931     0.060     2.196     2.317
     5  53 I        0.964    -0.276   392.762    34.212
     6  53 I        0.058    -0.885   422.785    35.569

 Mol. C6AA /au·bohr⁶  :       2433.246122
 Mol. C8AA /au·bohr⁸  :     182040.820038
 Mol. α(0) /au        :         83.248142


Wiberg/Mayer (AO) data.
largest (>0.10) Wiberg bond orders for each atom

 ---------------------------------------------------------------------------
     #   Z sym  total        # sym  WBO       # sym  WBO       # sym  WBO
 ---------------------------------------------------------------------------
     1   6 C    3.941 --     4 H    0.999     2 H    0.998     3 H    0.998
                             5 I    0.868
     2   1 H    0.996 --     1 C    0.998
     3   1 H    0.996 --     1 C    0.998
     4   1 H    0.996 --     1 C    0.999
     5  53 I    0.869 --     1 C    0.868
     6  53 I    0.070 -- ---------------------------------------------------------------------------

Topologies differ in total number of bonds
Writing topology from bond orders to xtbtopo.mol

molecular dipole:
                 x           y           z       tot (Debye)
 q only:        7.027      -1.495      -0.019
   full:        6.140      -1.614      -0.015      16.136
molecular quadrupole (traceless):
                xx          xy          yy          xz          yz          zz
 q only:      -68.102      11.751      32.108       0.357      -0.023      35.994
  q+dip:      -73.776       7.312      34.431       0.426       0.001      39.346
   full:      -71.301       7.813      33.226       0.408      -0.002      38.074


           -------------------------------------------------
          | TOTAL ENERGY              -11.554853675198 Eh   |
          | GRADIENT NORM               0.000054167154 Eh/α |
          | HOMO-LUMO GAP               1.922975167134 eV   |
           -------------------------------------------------

------------------------------------------------------------------------
 * finished run on 2022/05/09 at 10:46:20.208     
------------------------------------------------------------------------
 total:
 * wall-time:     0 d,  0 h,  0 min,  0.034 sec
 *  cpu-time:     0 d,  0 h,  0 min,  0.040 sec
 * ratio c/w:     1.190 speedup
 SCF:
 * wall-time:     0 d,  0 h,  0 min,  0.010 sec
 *  cpu-time:     0 d,  0 h,  0 min,  0.015 sec
 * ratio c/w:     1.435 speedup


-------------------------   --------------------
FINAL SINGLE POINT ENERGY       -11.554853675200
-------------------------   --------------------

                                *** OPTIMIZATION RUN DONE ***

----------------------------------------------------------------------------
                           ORCA NUMERICAL FREQUENCIES
                              (2-process run)
----------------------------------------------------------------------------

Number of atoms                ... 6
Central differences            ... used
Number of displacements        ... 36
Numerical increment            ... 5.000e-03 bohr
IR-spectrum generation         ... on
Raman-spectrum generation      ... off
Surface Crossing Hessian       ... off
List of participating nodes    ...  opt+numfreq.hostnames

The output will be reduced. Please look at the following files:
SCF program output             ... >opt+numfreq.lastscf
Integral program output        ... >opt+numfreq.lastint
Gradient program output        ... >opt+numfreq.lastgrad
Dipole moment program output   ... >opt+numfreq.lastmom
AutoCI program output          ... >opt+numfreq.lastautoci


         <<< Energy and Gradient at the input geometry >>>

        <<< Energy and Gradient at displaced geometries >>>
             <<<Displacing   1/coordinate 2 (+)>>>
             <<<Displacing   1/coordinate 1 (+)>>>
             <<<Displacing   1/coordinate 1 (-)>>>
             <<<Displacing   1/coordinate 2 (-)>>>
             <<<Displacing   1/coordinate 3 (+)>>>
             <<<Displacing   2/coordinate 1 (+)>>>
             <<<Displacing   2/coordinate 1 (-)>>>
             <<<Displacing   1/coordinate 3 (-)>>>
             <<<Displacing   2/coordinate 2 (+)>>>
             <<<Displacing   2/coordinate 3 (+)>>>
             <<<Displacing   2/coordinate 2 (-)>>>
             <<<Displacing   2/coordinate 3 (-)>>>
             <<<Displacing   3/coordinate 1 (+)>>>
             <<<Displacing   3/coordinate 1 (-)>>>
             <<<Displacing   3/coordinate 2 (+)>>>
             <<<Displacing   3/coordinate 2 (-)>>>
             <<<Displacing   3/coordinate 3 (+)>>>
             <<<Displacing   4/coordinate 1 (+)>>>
             <<<Displacing   3/coordinate 3 (-)>>>
             <<<Displacing   4/coordinate 1 (-)>>>
             <<<Displacing   4/coordinate 3 (+)>>>
             <<<Displacing   4/coordinate 3 (-)>>>
             <<<Displacing   4/coordinate 2 (+)>>>
             <<<Displacing   4/coordinate 2 (-)>>>
             <<<Displacing   5/coordinate 2 (+)>>>
             <<<Displacing   5/coordinate 2 (-)>>>
             <<<Displacing   5/coordinate 1 (+)>>>
             <<<Displacing   5/coordinate 1 (-)>>>
             <<<Displacing   6/coordinate 1 (+)>>>
             <<<Displacing   6/coordinate 1 (-)>>>
             <<<Displacing   5/coordinate 3 (+)>>>
             <<<Displacing   5/coordinate 3 (-)>>>
             <<<Displacing   6/coordinate 2 (+)>>>
             <<<Displacing   6/coordinate 2 (-)>>>
             <<<Displacing   6/coordinate 3 (+)>>>
             <<<Displacing   6/coordinate 3 (-)>>>

-----------------------
VIBRATIONAL FREQUENCIES
-----------------------

Scaling factor for frequencies =  1.000000000 (already applied!)

   0:         0.00 cm**-1
   1:         0.00 cm**-1
   2:         0.00 cm**-1
   3:         0.00 cm**-1
   4:         0.00 cm**-1
   5:         0.00 cm**-1
   6:        82.37 cm**-1
   7:       104.13 cm**-1
   8:       104.26 cm**-1
   9:       421.77 cm**-1
  10:       913.61 cm**-1
  11:       913.84 cm**-1
  12:      1243.73 cm**-1
  13:      1433.54 cm**-1
  14:      1433.72 cm**-1
  15:      3098.04 cm**-1
  16:      3126.35 cm**-1
  17:      3126.70 cm**-1


------------
NORMAL MODES
------------

These modes are the cartesian displacements weighted by the diagonal matrix
M(i,i)=1/sqrt(m[i]) where m[i] is the mass of the displaced atom
Thus, these vectors are normalized but *not* orthogonal

                  0          1          2          3          4          5    
      0       0.000000   0.000000   0.000000   0.000000   0.000000   0.000000
      1       0.000000   0.000000   0.000000   0.000000   0.000000   0.000000
      2       0.000000   0.000000   0.000000   0.000000   0.000000   0.000000
      3       0.000000   0.000000   0.000000   0.000000   0.000000   0.000000
      4       0.000000   0.000000   0.000000   0.000000   0.000000   0.000000
      5       0.000000   0.000000   0.000000   0.000000   0.000000   0.000000
      6       0.000000   0.000000   0.000000   0.000000   0.000000   0.000000
      7       0.000000   0.000000   0.000000   0.000000   0.000000   0.000000
      8       0.000000   0.000000   0.000000   0.000000   0.000000   0.000000
      9       0.000000   0.000000   0.000000   0.000000   0.000000   0.000000
     10       0.000000   0.000000   0.000000   0.000000   0.000000   0.000000
     11       0.000000   0.000000   0.000000   0.000000   0.000000   0.000000
     12       0.000000   0.000000   0.000000   0.000000   0.000000   0.000000
     13       0.000000   0.000000   0.000000   0.000000   0.000000   0.000000
     14       0.000000   0.000000   0.000000   0.000000   0.000000   0.000000
     15       0.000000   0.000000   0.000000   0.000000   0.000000   0.000000
     16       0.000000   0.000000   0.000000   0.000000   0.000000   0.000000
     17       0.000000   0.000000   0.000000   0.000000   0.000000   0.000000
                  6          7          8          9         10         11    
      0       0.436857  -0.054953   0.018519  -0.672411  -0.004232  -0.012043
      1       0.049510   0.416481  -0.122808  -0.090569   0.028427   0.090606
      2      -0.007730   0.124175   0.420084   0.002887  -0.091368   0.028747
      3       0.361429   0.049831  -0.136660  -0.420308  -0.619058  -0.402847
      4       0.027263   0.489502  -0.159690  -0.010807  -0.096113  -0.245913
      5       0.000144   0.139135   0.483420  -0.033902   0.187211  -0.102775
      6       0.358496   0.017603   0.197748  -0.414809   0.692907  -0.295299
      7       0.035733   0.486283  -0.120111  -0.047827   0.007891  -0.267314
      8      -0.021681   0.141731   0.479972   0.058951   0.145776  -0.032069
      9       0.365359  -0.255468   0.002317  -0.407540  -0.047498   0.770805
     10       0.051136   0.449759  -0.140545  -0.108957  -0.086373  -0.043640
     11      -0.003232   0.144163   0.474467  -0.019847   0.228336  -0.041780
     12       0.422501   0.004458  -0.001098   0.073787   0.000203   0.000580
     13       0.056914  -0.028764   0.008532   0.009920  -0.001368  -0.004359
     14      -0.001811  -0.008605  -0.029102  -0.000328   0.004397  -0.001383
     15      -0.472470   0.002237  -0.001159  -0.000273  -0.000012  -0.000018
     16      -0.062507  -0.021979   0.006431  -0.000017   0.000064   0.000207
     17       0.002740  -0.006524  -0.022080   0.000014  -0.000208   0.000065
                 12         13         14         15         16         17    
      0       0.085595  -0.009207   0.003643   0.034382   0.012112  -0.003291
      1       0.011437   0.069764  -0.024683   0.005057  -0.089427   0.022169
      2      -0.000423   0.024942   0.070387   0.000197  -0.022404  -0.090257
      3      -0.527991   0.197065  -0.200113  -0.204489  -0.192751   0.249638
      4      -0.202230  -0.317255  -0.357237   0.415394   0.337367  -0.467596
      5       0.104850  -0.539359  -0.254570  -0.342501  -0.321706   0.356135
      6      -0.543307   0.220318   0.207214  -0.151726  -0.086687  -0.227277
      7      -0.095978  -0.628208   0.390037   0.058067  -0.007713   0.086583
      8      -0.161500   0.146927   0.054530   0.549942   0.297131   0.714372
      9      -0.566562  -0.300206  -0.053361  -0.077657   0.135239   0.016685
     10       0.078945   0.058734   0.280867  -0.536940   0.733547   0.117432
     11       0.064503   0.075408  -0.694392  -0.209653   0.290945   0.002572
     12       0.003827  -0.000061   0.000024   0.000102   0.000001   0.000000
     13       0.000516   0.000466  -0.000165   0.000014  -0.000006   0.000002
     14      -0.000016   0.000167   0.000469  -0.000000  -0.000002  -0.000006
     15       0.001081   0.000002  -0.000002   0.000090  -0.000002   0.000001
     16       0.000143  -0.000026   0.000009   0.000012   0.000025  -0.000006
     17      -0.000006  -0.000009  -0.000026  -0.000001   0.000006   0.000025


-----------
IR SPECTRUM  
-----------

 Mode    freq (cm**-1)   T**2         TX         TY         TZ
-------------------------------------------------------------------
   6:        82.37    0.000000  (  0.000000   0.000000   0.000000)
   7:       104.13    0.000000  (  0.000000   0.000000   0.000000)
   8:       104.26    0.000000  (  0.000000   0.000000   0.000000)
   9:       421.77    0.000000  (  0.000000   0.000000   0.000000)
  10:       913.61    0.000000  (  0.000000   0.000000   0.000000)
  11:       913.84    0.000000  (  0.000000   0.000000   0.000000)
  12:      1243.73    0.000000  (  0.000000   0.000000   0.000000)
  13:      1433.54    0.000000  (  0.000000   0.000000   0.000000)
  14:      1433.72    0.000000  (  0.000000   0.000000   0.000000)
  15:      3098.04    0.000000  (  0.000000   0.000000   0.000000)
  16:      3126.35    0.000000  (  0.000000   0.000000   0.000000)
  17:      3126.70    0.000000  (  0.000000   0.000000   0.000000)

The first frequency considered to be a vibration is 6
The total number of vibrations considered is 12


--------------------------
THERMOCHEMISTRY AT 298.15K
--------------------------

Temperature         ... 298.15 K
Pressure            ... 1.00 atm
Total Mass          ... 268.84 AMU

Throughout the following assumptions are being made:
  (1) The electronic state is orbitally nondegenerate
  (2) There are no thermally accessible electronically excited states
  (3) Hindered rotations indicated by low frequency modes are not
      treated as such but are treated as vibrations and this may
      cause some error
  (4) All equations used are the standard statistical mechanics
      equations for an ideal gas
  (5) All vibrations are strictly harmonic

freq.      82.37  E(vib)   ...       0.48 
freq.     104.13  E(vib)   ...       0.46 
freq.     104.26  E(vib)   ...       0.46 
freq.     421.77  E(vib)   ...       0.18 
freq.     913.61  E(vib)   ...       0.03 
freq.     913.84  E(vib)   ...       0.03 
freq.    1243.73  E(vib)   ...       0.01 
freq.    1433.54  E(vib)   ...       0.00 
freq.    1433.72  E(vib)   ...       0.00 
freq.    3098.04  E(vib)   ...       0.00 
freq.    3126.35  E(vib)   ...       0.00 
freq.    3126.70  E(vib)   ...       0.00 

------------
INNER ENERGY
------------

The inner energy is: U= E(el) + E(ZPE) + E(vib) + E(rot) + E(trans)
    E(el)   - is the total energy from the electronic structure calculation
              = E(kin-el) + E(nuc-el) + E(el-el) + E(nuc-nuc)
    E(ZPE)  - the the zero temperature vibrational energy from the frequency calculation
    E(vib)  - the the finite temperature correction to E(ZPE) due to population
              of excited vibrational states
    E(rot)  - is the rotational thermal energy
    E(trans)- is the translational thermal energy

Summary of contributions to the inner energy U:
Electronic energy                ...    -11.55485368 Eh
Zero point energy                ...      0.03645538 Eh      22.88 kcal/mol
Thermal vibrational correction   ...      0.00264059 Eh       1.66 kcal/mol
Thermal rotational correction    ...      0.00141627 Eh       0.89 kcal/mol
Thermal translational correction ...      0.00141627 Eh       0.89 kcal/mol
-----------------------------------------------------------------------
Total thermal energy                    -11.51292517 Eh


Summary of corrections to the electronic energy:
(perhaps to be used in another calculation)
Total thermal correction                  0.00547313 Eh       3.43 kcal/mol
Non-thermal (ZPE) correction              0.03645538 Eh      22.88 kcal/mol
-----------------------------------------------------------------------
Total correction                          0.04192851 Eh      26.31 kcal/mol


--------
ENTHALPY
--------

The enthalpy is H = U + kB*T
                kB is Boltzmann's constant
Total free energy                 ...    -11.51292517 Eh 
Thermal Enthalpy correction       ...      0.00094421 Eh       0.59 kcal/mol
-----------------------------------------------------------------------
Total Enthalpy                    ...    -11.51198096 Eh


Note: Only C1 symmetry has been detected, increase convergence thresholds 
      if your molecule has a higher symmetry. Symmetry factor of 1.0 is   
      used for the rotational entropy correction. 
 

Note: Rotational entropy computed according to Herzberg 
Infrared and Raman Spectra, Chapter V,1, Van Nostrand Reinhold, 1945 
Point Group:  C1, Symmetry Number:   1  
Rotational constants in cm-1:     5.250858     0.009222     0.009222 

Vibrational entropy computed according to the QRRHO of S. Grimme
Chem.Eur.J. 2012 18 9955


-------
ENTROPY
-------

The entropy contributions are T*S = T*(S(el)+S(vib)+S(rot)+S(trans))
     S(el)   - electronic entropy
     S(vib)  - vibrational entropy
     S(rot)  - rotational entropy
     S(trans)- translational entropy
The entropies will be listed as mutliplied by the temperature to get
units of energy

Electronic entropy                ...      0.00000000 Eh      0.00 kcal/mol
Vibrational entropy               ...      0.00510684 Eh      3.20 kcal/mol
Rotational entropy                ...      0.01315251 Eh      8.25 kcal/mol
Translational entropy             ...      0.02027183 Eh     12.72 kcal/mol
-----------------------------------------------------------------------
Final entropy term                ...      0.03853117 Eh     24.18 kcal/mol

In case the symmetry of your molecule has not been determined correctly
or in case you have a reason to use a different symmetry number we print 
out the resulting rotational entropy values for sn=1,12 :
 --------------------------------------------------------
|  sn= 1 | S(rot)=       0.01315251 Eh      8.25 kcal/mol|
|  sn= 2 | S(rot)=       0.01249805 Eh      7.84 kcal/mol|
|  sn= 3 | S(rot)=       0.01211522 Eh      7.60 kcal/mol|
|  sn= 4 | S(rot)=       0.01184359 Eh      7.43 kcal/mol|
|  sn= 5 | S(rot)=       0.01163290 Eh      7.30 kcal/mol|
|  sn= 6 | S(rot)=       0.01146076 Eh      7.19 kcal/mol|
|  sn= 7 | S(rot)=       0.01131521 Eh      7.10 kcal/mol|
|  sn= 8 | S(rot)=       0.01118914 Eh      7.02 kcal/mol|
|  sn= 9 | S(rot)=       0.01107793 Eh      6.95 kcal/mol|
|  sn=10 | S(rot)=       0.01097845 Eh      6.89 kcal/mol|
|  sn=11 | S(rot)=       0.01088846 Eh      6.83 kcal/mol|
|  sn=12 | S(rot)=       0.01080630 Eh      6.78 kcal/mol|
 --------------------------------------------------------


-------------------
GIBBS FREE ENERGY
-------------------

The Gibbs free energy is G = H - T*S

Total enthalpy                    ...    -11.51198096 Eh 
Total entropy correction          ...     -0.03853117 Eh    -24.18 kcal/mol
-----------------------------------------------------------------------
Final Gibbs free energy         ...    -11.55051213 Eh

For completeness - the Gibbs free energy minus the electronic energy
G-E(el)                           ...      0.00434154 Eh      2.72 kcal/mol


Total Time for Numerical Frequencies  :        28.167 sec

Timings for individual modules:

Sum of individual times         ...        0.189 sec (=   0.003 min)
Geometry relaxation             ...        0.076 sec (=   0.001 min)  40.4 %
XTB module                      ...        0.113 sec (=   0.002 min)  59.6 %
                             ****ORCA TERMINATED NORMALLY****
TOTAL RUN TIME: 0 days 0 hours 0 minutes 29 seconds 106 msec
