6
Coordinates from ORCA-job scants+numfreq Relaxed Surface Scan Step 1
  C      -1.600766      1.071596     -0.001851
  H      -2.024431      1.833340     -0.635425
  H      -1.928235      1.172939      1.019733
  H      -1.788077      0.082256     -0.385743
  I       0.577155      1.363554     -0.012081
  I      -4.737186      0.655095      0.015357
>
6
Coordinates from ORCA-job scants+numfreq Relaxed Surface Scan Step 2
  C      -1.632045      1.067754     -0.001485
  H      -2.036902      1.835328     -0.637196
  H      -1.940049      1.172590      1.023868
  H      -1.800984      0.077650     -0.386663
  I       0.569242      1.361536     -0.012645
  I      -4.660802      0.663923      0.014111
>
6
Coordinates from ORCA-job scants+numfreq Relaxed Surface Scan Step 3
  C      -1.671038      1.062599     -0.001256
  H      -2.046472      1.838602     -0.640599
  H      -1.949048      1.172247      1.029558
  H      -1.809441      0.071320     -0.388682
  I       0.566781      1.361110     -0.012694
  I      -4.592322      0.672901      0.013663
>
6
Coordinates from ORCA-job scants+numfreq Relaxed Surface Scan Step 4
  C      -1.723431      1.055608     -0.000990
  H      -2.051280      1.844456     -0.645618
  H      -1.953091      1.172860      1.037672
  H      -1.812381      0.063274     -0.391721
  I       0.575911      1.362331     -0.012738
  I      -4.537269      0.680250      0.013385
>
6
Coordinates from ORCA-job scants+numfreq Relaxed Surface Scan Step 5
  C      -1.801230      1.045230     -0.000593
  H      -2.047432      1.853389     -0.652175
  H      -1.948251      1.175001      1.048140
  H      -1.806115      0.054192     -0.395710
  I       0.609110      1.366761     -0.012907
  I      -4.507622      0.684207      0.013234
>
6
Coordinates from ORCA-job scants+numfreq Relaxed Surface Scan Step 6
  C      -1.911854      1.030473     -0.000028
  H      -2.031957      1.860883     -0.656468
  H      -1.932135      1.178115      1.054824
  H      -1.789082      0.050070     -0.398348
  I       0.674288      1.375455     -0.013240
  I      -4.510799      0.683783      0.013251
>
6
Coordinates from ORCA-job scants+numfreq Relaxed Surface Scan Step 7
  C      -2.023276      1.015609      0.000542
  H      -2.017003      1.858860     -0.653425
  H      -1.917655      1.179333      1.049742
  H      -1.775281      0.056644     -0.396530
  I       0.746449      1.385081     -0.013609
  I      -4.514774      0.683252      0.013271
