
                                 *****************
                                 * O   R   C   A *
                                 *****************

           --- An Ab Initio, DFT and Semiempirical electronic structure package ---

                  #######################################################
                  #                        -***-                        #
                  #          Department of theory and spectroscopy      #
                  #               Directorship: Frank Neese             #
                  #        Max Planck Institute fuer Kohlenforschung    #
                  #                Kaiser Wilhelm Platz 1               #
                  #                 D-45470 Muelheim/Ruhr               #
                  #                      Germany                        #
                  #                                                     #
                  #                  All rights reserved                #
                  #                        -***-                        #
                  #######################################################


                         Program Version 4.2.1 -  RELEASE  -


 With contributions from (in alphabetic order):
   Daniel Aravena         : Magnetic Suceptibility
   Michael Atanasov       : Ab Initio Ligand Field Theory (pilot matlab implementation)
   Alexander A. Auer      : GIAO ZORA, VPT2
   Ute Becker             : Parallelization
   Giovanni Bistoni       : ED, misc. LED, open-shell LED, HFLD
   Martin Brehm           : Molecular dynamics
   Dmytro Bykov           : SCF Hessian
   Vijay G. Chilkuri      : MRCI spin determinant printing, contributions to CSF-ICE
   Dipayan Datta          : RHF DLPNO-CCSD density
   Achintya Kumar Dutta   : EOM-CC, STEOM-CC
   Dmitry Ganyushin       : Spin-Orbit,Spin-Spin,Magnetic field MRCI
   Miquel Garcia          : C-PCM Hessian, Gaussian charge scheme
   Yang Guo               : DLPNO-NEVPT2, CIM, IAO-localization
   Andreas Hansen         : Spin unrestricted coupled pair/coupled cluster methods
   Benjamin Helmich-Paris : CASSCF linear response (MC-RPA)
   Lee Huntington         : MR-EOM, pCC
   Robert Izsak           : Overlap fitted RIJCOSX, COSX-SCS-MP3, EOM
   Christian Kollmar      : KDIIS, OOCD, Brueckner-CCSD(T), CCSD density
   Simone Kossmann        : Meta GGA functionals, TD-DFT gradient, OOMP2, MP2 Hessian
   Martin Krupicka        : AUTO-CI
   Lucas Lang             : DCDCAS
   Dagmar Lenk            : GEPOL surface, SMD
   Dimitrios Liakos       : Extrapolation schemes; Compound Job, initial MDCI parallelization
   Dimitrios Manganas     : Further ROCIS development; embedding schemes
   Dimitrios Pantazis     : SARC Basis sets
   Taras Petrenko         : DFT Hessian,TD-DFT gradient, ASA, ECA, R-Raman, ABS, FL, XAS/XES, NRVS
   Peter Pinski           : DLPNO-MP2, DLPNO-MP2 Gradient
   Christoph Reimann      : Effective Core Potentials
   Marius Retegan         : Local ZFS, SOC
   Christoph Riplinger    : Optimizer, TS searches, QM/MM, DLPNO-CCSD(T), (RO)-DLPNO pert. Triples
   Tobias Risthaus        : Range-separated hybrids, TD-DFT gradient, RPA, STAB
   Michael Roemelt        : Original ROCIS implementation
   Masaaki Saitow         : Open-shell DLPNO-CCSD energy and density
   Barbara Sandhoefer     : DKH picture change effects
   Avijit Sen             : IP-ROCIS
   Kantharuban Sivalingam : CASSCF convergence, NEVPT2, FIC-MRCI
   Bernardo de Souza      : ESD, SOC TD-DFT
   Georgi Stoychev        : AutoAux, RI-MP2 NMR
   Willem Van den Heuvel  : Paramagnetic NMR
   Boris Wezisla          : Elementary symmetry handling
   Frank Wennmohs         : Technical directorship


 We gratefully acknowledge several colleagues who have allowed us to
 interface, adapt or use parts of their codes:
   Stefan Grimme, W. Hujo, H. Kruse,             : VdW corrections, initial TS optimization,
                  C. Bannwarth                     DFT functionals, gCP, sTDA/sTD-DF
   Ed Valeev, F. Pavosevic, A. Kumar             : LibInt (2-el integral package), F12 methods
   Garnet Chan, S. Sharma, J. Yang, R. Olivares  : DMRG
   Ulf Ekstrom                                   : XCFun DFT Library
   Mihaly Kallay                                 : mrcc  (arbitrary order and MRCC methods)
   Andreas Klamt, Michael Diedenhofen            : otool_cosmo (COSMO solvation model)
   Jiri Pittner, Ondrej Demel                    : Mk-CCSD
   Frank Weinhold                                : gennbo (NPA and NBO analysis)
   Christopher J. Cramer and Donald G. Truhlar   : smd solvation model
   Lars Goerigk                                  : TD-DFT with DH, B97 family of functionals
   V. Asgeirsson, H. Jonsson                     : NEB implementation
   FAccTs GmbH                                   : IRC, NEB, NEB-TS, Multilevel, MM, QM/MM, CI optimization
   S Lehtola, MJT Oliveira, MAL Marques          : LibXC Library


 Your calculation uses the libint2 library for the computation of 2-el integrals
 For citations please refer to: http://libint.valeyev.net

 Your ORCA version has been built with support for libXC version: 4.2.3
 For citations please refer to: https://tddft.org/programs/libxc/

 This ORCA versions uses:
   CBLAS   interface :  Fast vector & matrix operations
   LAPACKE interface :  Fast linear algebra routines
   SCALAPACK package :  Parallel linear algebra routines




***************************************
The coordinates will be read from file: init.xyz
***************************************


Your calculation utilizes the semiempirical GFN2-xTB method
Please cite in your paper:
C. Bannwarth, Ehlert S., S. Grimme,  J. Chem. Theory Comput., 15, (2019), 1652.
   

----- Orbital basis set information -----
Your calculation utilizes the basis: def2-SVP
   F. Weigend and R. Ahlrichs, Phys. Chem. Chem. Phys. 7, 3297 (2005).

cite the ECPs for I  [Def2-ECP] as follows:
Ce-Yb(ecp-28): M. Dolg, H. Stoll, H.Preuss, J. Chem. Phys., 1989, 90, 1730-1734.
Y-Cd(ecp-28), Hf-Hg(ecp-46): D. Andrae,U. Haeussermann, M. Dolg, H. Stoll, H. Preuss, Theor. Chim. Acta, 1990, 77, 123-141.
In-Sb(ecp-28), Tl-Bi(ecp-46): B. Metz, H. Stoll, M. Dolg, J. Chem. Phys., 2000, 113, 2563-2569.
Te-Xe(ecp-28), Po-Rn(ecp-46): K. A. Peterson, D. Figgen, E. Goll, H. Stoll, M. Dolg, J. Chem. Phys., 2003, 119, 11113-11123.
Rb(ecp-28), Cs(ecp-46): T. Leininger, A. Nicklass, W. Kuechle, H. Stoll, M. Dolg, A. Bergner, Chem. Phys. Lett., 1996, 255, 274-280.
Sr(ecp-28), Ba(ecp-46): M. Kaupp, P. V. Schleyer, H. Stoll and H. Preuss, J. Chem. Phys., 1991, 94, 1360-1366.
La(ecp-46): M. Dolg, H. Stoll, A. Savin, H. Preuss, Theor. Chim. Acta, 1989, 75, 173-194.
Lu(ecp-28): X. Cao, M. Dolg, J. Chem. Phys., 2001, 115, 7348-7355.

ECP parameters for I  [Def2-ECP] have been obtained from:
TURBOMOLE (7.0.2)

================================================================================
                                        WARNINGS
                       Please study these warnings very carefully!
================================================================================


WARNING: The environment variable RSH_COMMAND is not set!
  ===> : All Displacements for the Numerical Hessian calculation
         will be started on localhost

WARNING: Geometry Optimization
  ===> : Switching off AutoStart
         For restart on a previous wavefunction, please use MOREAD

WARNING: Found dipole moment calculation with XTB calculation
  ===> : Switching off dipole moment calculation


INFO   : the flag for use of LIBINT has been found!

================================================================================
                                       INPUT FILE
================================================================================
NAME = scants+numfreq.inp
|  1> ! xTB2 ScanTS NumFreq IRC
|  2> 
|  3> *xyzfile -1 1 init.xyz
|  4> 
|  5> %geom
|  6>  scan
|  7>   B 0 5 = 3.164, 2.08, 11
|  8>  end
|  9> end
| 10> 
| 11> %pal
| 12>  nprocs 2
| 13> end
| 14> 
| 15>                          ****END OF INPUT****
================================================================================

                       ******************************
                       *    Relaxed Surface Scan    *
                       ******************************

                      Bond (  5,   0):   range=   3.16400000 ..   2.08000000  steps =   11

There is 1 parameter to be scanned.
There will be   11 constrained geometry optimizations.


         *************************************************************
         *               RELAXED SURFACE SCAN STEP   1               *
         *                                                           *
         *                 Bond (  5,   0)  :   3.16400000           *
         *************************************************************

Geometry optimization settings:
Update method            Update   .... BFGS
Choice of coordinates    CoordSys .... Z-matrix Internals
Initial Hessian          InHess   .... Almoef's Model

Convergence Tolerances:
Energy Change            TolE     ....  5.0000e-06 Eh
Max. Gradient            TolMAXG  ....  3.0000e-04 Eh/bohr
RMS Gradient             TolRMSG  ....  1.0000e-04 Eh/bohr
Max. Displacement        TolMAXD  ....  4.0000e-03 bohr
RMS Displacement         TolRMSD  ....  2.0000e-03 bohr
Strict Convergence                ....  False
------------------------------------------------------------------------------
                        ORCA OPTIMIZATION COORDINATE SETUP
------------------------------------------------------------------------------

The optimization will be done in new redundant internal coordinates
Making redundant internal coordinates   ...  (new redundants) done
Evaluating the initial hessian          ...  (Almloef) done
Evaluating the coordinates              ...  done
Calculating the B-matrix                .... done
Calculating the G-matrix                .... done
Diagonalizing the G-matrix              .... done
Imposing constraints:
 Iter   0:  RMS(Cart)=    0.0000839422 RMS(Int)=    0.0004214089
 Iter   1:  RMS(Cart)=    0.0000434664 RMS(Int)=    0.0002182111
 Iter   2:  RMS(Cart)=    0.0000225075 RMS(Int)=    0.0001129926
 Iter   3:  RMS(Cart)=    0.0000116547 RMS(Int)=    0.0000585091
 Iter   4:  RMS(Cart)=    0.0000060349 RMS(Int)=    0.0000302968
 Iter   5:  RMS(Cart)=    0.0000031250 RMS(Int)=    0.0000156881
 Iter   6:  RMS(Cart)=    0.0000016182 RMS(Int)=    0.0000081235
 Iter   7:  RMS(Cart)=    0.0000008379 RMS(Int)=    0.0000042065
 Iter   8:  RMS(Cart)=    0.0000004339 RMS(Int)=    0.0000021782
 Iter   9:  RMS(Cart)=    0.0000002247 RMS(Int)=    0.0000011279
 Iter  10:  RMS(Cart)=    0.0000001163 RMS(Int)=    0.0000005840
 Iter  11:  RMS(Cart)=    0.0000000602 RMS(Int)=    0.0000003024
 Iter  12:  RMS(Cart)=    0.0000000312 RMS(Int)=    0.0000001566
 Iter  13:  RMS(Cart)=    0.0000000162 RMS(Int)=    0.0000000811
CONVERGED
The first mode is                       ....    5
The number of degrees of freedom        ....   12
Storing new coordinates                 .... done

    -----------------------------------------------------------------
                    Redundant Internal Coordinates


    -----------------------------------------------------------------
         Definition                    Initial Value    Approx d2E/dq
    -----------------------------------------------------------------
      1. B(H   1,C   0)                  1.0776         0.376919   
      2. B(H   2,C   0)                  1.0776         0.376932   
      3. B(H   3,C   0)                  1.0776         0.376868   
      4. B(I   4,C   0)                  2.1975         0.108108   
      5. B(I   5,H   2)                  3.0275         0.000982   
      6. B(I   5,C   0)                  3.1640         0.003109 C 
      7. B(I   5,H   1)                  3.0282         0.000979   
      8. B(I   5,H   3)                  3.0311         0.000969   
      9. A(H   2,C   0,H   3)          111.7885         0.295049   
     10. A(H   1,C   0,I   4)          107.0430         0.283837   
     11. A(H   2,C   0,I   4)          107.0511         0.283838   
     12. A(H   3,C   0,I   4)          107.0109         0.283831   
     13. A(H   1,C   0,I   5)           72.9256         0.176263   
     14. A(H   2,C   0,I   5)           72.8886         0.176264   
     15. A(H   3,C   0,I   5)           73.0809         0.176260   
     16. A(H   1,C   0,H   2)          111.8098         0.295055   
     17. A(H   1,C   0,H   3)          111.7827         0.295047   
    -----------------------------------------------------------------

Number of atoms                         .... 6
Number of degrees of freedom            .... 17

         *************************************************************
         *                GEOMETRY OPTIMIZATION CYCLE   1            *
         *************************************************************
      -----------------------------------------------------------      
     |                   =====================                   |     
     |                           x T B                           |     
     |                   =====================                   |     
     |                         S. Grimme                         |     
     |          Mulliken Center for Theoretical Chemistry        |     
     |                    University of Bonn                     |     
      -----------------------------------------------------------      

   * xtb version 6.4.0 (d4b70c2) compiled by 'ehlert@majestix' on 2021-02-01

   xtb is free software: you can redistribute it and/or modify it under
   the terms of the GNU Lesser General Public License as published by
   the Free Software Foundation, either version 3 of the License, or
   (at your option) any later version.
   
   xtb is distributed in the hope that it will be useful,
   but WITHOUT ANY WARRANTY; without even the implied warranty of
   MERCHANTABILITY or FITNESS FOR A PARTICULAR PURPOSE.  See the
   GNU Lesser General Public License for more details.
   
   Cite this work as:
   * C. Bannwarth, E. Caldeweyher, S. Ehlert, A. Hansen, P. Pracht,
     J. Seibert, S. Spicher, S. Grimme, WIREs Comput. Mol. Sci., 2020,
     e01493. DOI: 10.1002/wcms.1493
   
   for GFN2-xTB:
   * C. Bannwarth, S. Ehlert and S. Grimme., J. Chem. Theory Comput., 2019,
     15, 1652-1671. DOI: 10.1021/acs.jctc.8b01176
   for GFN1-xTB:
   * S. Grimme, C. Bannwarth, P. Shushkov, J. Chem. Theory Comput., 2017,
     13, 1989-2009. DOI: 10.1021/acs.jctc.7b00118
   for GFN0-xTB:
   * P. Pracht, E. Caldeweyher, S. Ehlert, S. Grimme, ChemRxiv, 2019, preprint.
     DOI: 10.26434/chemrxiv.8326202.v1
   for GFN-FF:
   * S. Spicher and S. Grimme, Angew. Chem. Int. Ed., 2020, 59, 15665-15673.
     DOI: 10.1002/anie.202004239
   
   for DFT-D4:
   * E. Caldeweyher, C. Bannwarth and S. Grimme, J. Chem. Phys., 2017,
     147, 034112. DOI: 10.1063/1.4993215
   * E. Caldeweyher, S. Ehlert, A. Hansen, H. Neugebauer, S. Spicher,
     C. Bannwarth and S. Grimme, J. Chem. Phys., 2019, 150, 154122.
     DOI: 10.1063/1.5090222
   * E. Caldeweyher, J.-M. Mewes, S. Ehlert and S. Grimme, Phys. Chem. Chem. Phys.
     2020, 22, 8499-8512. DOI: 10.1039/D0CP00502A
   
   for sTDA-xTB:
   * S. Grimme and C. Bannwarth, J. Chem. Phys., 2016, 145, 054103.
     DOI: 10.1063/1.4959605
   
   in the mass-spec context:
   * V. Asgeirsson, C. Bauer and S. Grimme, Chem. Sci., 2017, 8, 4879.
     DOI: 10.1039/c7sc00601b
   * J. Koopman and S. Grimme, ACS Omega 2019, 4, 12, 15120-15133.
     DOI: 10.1021/acsomega.9b02011
   
   for metadynamics refer to:
   * S. Grimme, J. Chem. Theory Comput., 2019, 155, 2847-2862
     DOI: 10.1021/acs.jctc.9b00143
   
   with help from (in alphabetical order)
   P. Atkinson, C. Bannwarth, F. Bohle, G. Brandenburg, E. Caldeweyher
   M. Checinski, S. Dohm, S. Ehlert, S. Ehrlich, I. Gerasimov, J. Koopman
   C. Lavinge, S. Lehtola, F. März, M. Müller, F. Musil, H. Neugebauer
   J. Pisarek, P. Pracht, J. Seibert, P. Shushkov, S. Spicher, M. Stahn
   T. Strunk, J. Stückrath, T. Rose, and J. Unsleber
   
 * started run on 2022/05/09 at 09:18:08.620     

           -------------------------------------------------
          |                Calculation Setup                |
           -------------------------------------------------

          program call               : /opt/orca/otool_xtb scants+numfreq_XTB.xyz --grad -c -1 -u 0 -P 2 --namespace scants+numfreq
          calculation namespace      : scants+numfreq
          coordinate file            : scants+numfreq_XTB.xyz
          omp threads                :                     2
          number of atoms            :                     6
          number of electrons        :                    22
          charge                     :                    -1
          spin                       :                   0.0
          first test random number   :      0.90652239278629

   ID    Z sym.   atoms
    1    6 C      1
    2    1 H      2-4
    3   53 I      5, 6

molecular fragmentation (1/2 indicates fragments):
111112
# atoms in fragment 1/2:     5     1
 fragment masses (1/2) :      141.94      126.90
CMA distance (Bohr)    :   9.679
constraining FC (au)   :  0.0500
########################################################################
[WARNING] Please study the warnings concerning your input carefully
-1- prog_main_parseArguments: Process number higher than OMP_NUM_THREADS, I hope you know what you are doing.
########################################################################

           -------------------------------------------------
          |                 G F N 2 - x T B                 |
           -------------------------------------------------

        Reference                      10.1021/acs.jctc.8b01176
      * Hamiltonian:
        H0-scaling (s, p, d)           1.850000    2.230000    2.230000
        zeta-weighting                 0.500000
      * Dispersion:
        s8                             2.700000
        a1                             0.520000
        a2                             5.000000
        s9                             5.000000
      * Repulsion:
        kExp                           1.500000    1.000000
        rExp                           1.000000
      * Coulomb:
        alpha                          2.000000
        third order                    shell-resolved
        anisotropic                    true
        a3                             3.000000
        a5                             4.000000
        cn-shift                       1.200000
        cn-exp                         4.000000
        max-rad                        5.000000


          ...................................................
          :                      SETUP                      :
          :.................................................:
          :  # basis functions                  27          :
          :  # atomic orbitals                  25          :
          :  # shells                           11          :
          :  # electrons                        22          :
          :  max. iterations                   250          :
          :  Hamiltonian                  GFN2-xTB          :
          :  restarted?                      false          :
          :  GBSA solvation                  false          :
          :  PC potential                    false          :
          :  electronic temp.          300.0000000     K    :
          :  accuracy                    1.0000000          :
          :  -> integral cutoff          0.2500000E+02      :
          :  -> integral neglect         0.1000000E-07      :
          :  -> SCF convergence          0.1000000E-05 Eh   :
          :  -> wf. convergence          0.1000000E-03 e    :
          :  Broyden damping             0.4000000          :
          ...................................................

 iter      E             dE          RMSdq      gap      omega  full diag
   1    -11.6031160 -0.116031E+02  0.113E+01    3.11       0.0  T
   2    -11.6128557 -0.973967E-02  0.526E+00    2.17       1.0  T
   3    -11.6144709 -0.161527E-02  0.162E+00    1.86       1.0  T
   4    -11.6146658 -0.194833E-03  0.120E+00    2.06       1.0  T
   5    -11.6150815 -0.415766E-03  0.548E-01    2.00       1.0  T
   6    -11.6151542 -0.727016E-04  0.271E-01    1.85       1.0  T
   7    -11.6151506  0.358984E-05  0.279E-01    1.85       1.0  T
   8    -11.6152048 -0.541064E-04  0.215E-02    1.92       1.9  T
   9    -11.6152043  0.465609E-06  0.313E-02    1.93       1.3  T
  10    -11.6152049 -0.609257E-06  0.247E-03    1.92      16.5  T
  11    -11.6152049 -0.282997E-08  0.914E-04    1.92      44.7  T
  12    -11.6152049 -0.730385E-09  0.851E-05    1.92     479.8  T

   *** convergence criteria satisfied after 12 iterations ***

         #    Occupation            Energy/Eh            Energy/eV
      -------------------------------------------------------------
         1        2.0000           -0.6087809             -16.5658
       ...           ...                  ...                  ...
         5        2.0000           -0.3710172             -10.0959
         6        2.0000           -0.3502009              -9.5295
         7        2.0000           -0.2841516              -7.7322
         8        2.0000           -0.2841473              -7.7320
         9        2.0000           -0.1797594              -4.8915
        10        2.0000           -0.1742699              -4.7421
        11        2.0000           -0.1742690              -4.7421 (HOMO)
        12                         -0.1036345              -2.8200 (LUMO)
        13                          0.1590925               4.3291
        14                          0.1591018               4.3294
        15                          0.1843319               5.0159
        16                          0.1843534               5.0165
       ...                                ...                  ...
        25                          0.4617887              12.5659
      -------------------------------------------------------------
                  HL-Gap            0.0706346 Eh            1.9221 eV
             Fermi-level           -0.1389518 Eh           -3.7811 eV

 SCC (total)                   0 d,  0 h,  0 min,  0.008 sec
 SCC setup                      ...        0 min,  0.000 sec (  5.366%)
 Dispersion                     ...        0 min,  0.000 sec (  0.515%)
 classical contributions        ...        0 min,  0.000 sec (  0.233%)
 integral evaluation            ...        0 min,  0.001 sec ( 16.309%)
 iterations                     ...        0 min,  0.004 sec ( 50.063%)
 molecular gradient             ...        0 min,  0.002 sec ( 21.506%)
 printout                       ...        0 min,  0.000 sec (  5.526%)

         :::::::::::::::::::::::::::::::::::::::::::::::::::::
         ::                     SUMMARY                     ::
         :::::::::::::::::::::::::::::::::::::::::::::::::::::
         :: total energy             -11.554853637289 Eh    ::
         :: gradient norm              0.000084661806 Eh/a0 ::
         :: HOMO-LUMO gap              1.922064880977 eV    ::
         ::.................................................::
         :: SCC energy               -11.615204899561 Eh    ::
         :: -> isotropic ES            0.140101522539 Eh    ::
         :: -> anisotropic ES         -0.004259298261 Eh    ::
         :: -> anisotropic XC         -0.000638787780 Eh    ::
         :: -> dispersion             -0.003714112773 Eh    ::
         :: repulsion energy           0.060352496572 Eh    ::
         :: add. restraining           0.000000000000 Eh    ::
         :: total charge              -1.000000000000 e     ::
         :::::::::::::::::::::::::::::::::::::::::::::::::::::

           -------------------------------------------------
          |                Property Printout                |
           -------------------------------------------------

    * Orbital Energies and Occupations

         #    Occupation            Energy/Eh            Energy/eV
      -------------------------------------------------------------
         1        2.0000           -0.6087809             -16.5658
         2        2.0000           -0.4745142             -12.9122
         3        2.0000           -0.4435856             -12.0706
         4        2.0000           -0.3710197             -10.0960
         5        2.0000           -0.3710172             -10.0959
         6        2.0000           -0.3502009              -9.5295
         7        2.0000           -0.2841516              -7.7322
         8        2.0000           -0.2841473              -7.7320
         9        2.0000           -0.1797594              -4.8915
        10        2.0000           -0.1742699              -4.7421
        11        2.0000           -0.1742690              -4.7421 (HOMO)
        12                         -0.1036345              -2.8200 (LUMO)
        13                          0.1590925               4.3291
        14                          0.1591018               4.3294
        15                          0.1843319               5.0159
        16                          0.1843534               5.0165
        17                          0.2826492               7.6913
        18                          0.3097901               8.4298
        19                          0.3099410               8.4339
        20                          0.3669604               9.9855
        21                          0.3669676               9.9857
        22                          0.3987427              10.8503
       ...                                ...                  ...
        25                          0.4617887              12.5659
      -------------------------------------------------------------
                  HL-Gap            0.0706346 Eh            1.9221 eV
             Fermi-level           -0.1389518 Eh           -3.7811 eV

     #   Z          covCN         q      C6AA      α(0)
     1   6 C        3.786    -0.020    20.945     6.519
     2   1 H        0.931     0.060     2.194     2.316
     3   1 H        0.931     0.060     2.193     2.316
     4   1 H        0.931     0.060     2.196     2.317
     5  53 I        0.964    -0.276   392.755    34.211
     6  53 I        0.058    -0.885   422.792    35.570

 Mol. C6AA /au·bohr⁶  :       2433.246277
 Mol. C8AA /au·bohr⁸  :     182040.916118
 Mol. α(0) /au        :         83.248172


Wiberg/Mayer (AO) data.
largest (>0.10) Wiberg bond orders for each atom

 ---------------------------------------------------------------------------
     #   Z sym  total        # sym  WBO       # sym  WBO       # sym  WBO
 ---------------------------------------------------------------------------
     1   6 C    3.941 --     4 H    0.999     2 H    0.998     3 H    0.998
                             5 I    0.868
     2   1 H    0.996 --     1 C    0.998
     3   1 H    0.996 --     1 C    0.998
     4   1 H    0.996 --     1 C    0.999
     5  53 I    0.869 --     1 C    0.868
     6  53 I    0.070 -- ---------------------------------------------------------------------------

Topologies differ in total number of bonds
Writing topology from bond orders to xtbtopo.mol

molecular dipole:
                 x           y           z       tot (Debye)
 q only:        7.028      -1.495      -0.020
   full:        6.141      -1.614      -0.016      16.139
molecular quadrupole (traceless):
                xx          xy          yy          xz          yz          zz
 q only:      -68.116      11.757      32.115       0.360      -0.024      36.002
  q+dip:      -73.785       7.318      34.434       0.428      -0.000      39.352
   full:      -71.311       7.820      33.230       0.411      -0.002      38.081


           -------------------------------------------------
          | TOTAL ENERGY              -11.554853637289 Eh   |
          | GRADIENT NORM               0.000084661806 Eh/α |
          | HOMO-LUMO GAP               1.922064880977 eV   |
           -------------------------------------------------

------------------------------------------------------------------------
 * finished run on 2022/05/09 at 09:18:08.697     
------------------------------------------------------------------------
 total:
 * wall-time:     0 d,  0 h,  0 min,  0.077 sec
 *  cpu-time:     0 d,  0 h,  0 min,  0.077 sec
 * ratio c/w:     0.999 speedup
 SCF:
 * wall-time:     0 d,  0 h,  0 min,  0.009 sec
 *  cpu-time:     0 d,  0 h,  0 min,  0.015 sec
 * ratio c/w:     1.699 speedup


-------------------------   --------------------
FINAL SINGLE POINT ENERGY       -11.554853637290
-------------------------   --------------------

------------------------------------------------------------------------------
                         ORCA GEOMETRY RELAXATION STEP
------------------------------------------------------------------------------

Reading the OPT-File                    .... done
Getting information on internals        .... done
Copying old internal coords+grads       .... done
Making the new internal coordinates     .... (new redundants).... done
Validating the new internal coordinates .... (new redundants).... done
Calculating the B-matrix                .... done
Calculating the G,G- and P matrices     .... done
Transforming gradient to internals      .... done
Projecting the internal gradient        .... done
Number of atoms                         ....   6
Number of internal coordinates          ....  17
Current Energy                          ....   -11.554853637 Eh
Current gradient norm                   ....     0.000084662 Eh/bohr
Maximum allowed component of the step   ....  0.300
Current trust radius                    ....  0.300
Evaluating the initial hessian          ....  (Almloef) done
Projecting the Hessian                  .... done
Forming the augmented Hessian           .... done
Diagonalizing the augmented Hessian     .... done
Last element of RFO vector              ....  0.999999675
Lowest eigenvalues of augmented Hessian:
 -0.000000039  0.035088462  0.035091617  0.101415803  0.108107926
Length of the computed step             ....  0.000806073
The final length of the internal step   ....  0.000806073
Converting the step to cartesian space:
 Initial RMS(Int)=    0.0001955014
Transforming coordinates:
 Iter   0:  RMS(Cart)=    0.0002004605 RMS(Int)=    0.0001955089
 Iter   1:  RMS(Cart)=    0.0000000227 RMS(Int)=    0.0000000222
Imposing constraints:
 Iter   0:  RMS(Cart)=    0.0000000094 RMS(Int)=    0.0000000472
CONVERGED
done
Storing new coordinates                 .... done

                                .--------------------.
          ----------------------|Geometry convergence|-------------------------
          Item                value                   Tolerance       Converged
          ---------------------------------------------------------------------
          RMS gradient        0.0000167867            0.0001000000      YES
          MAX gradient        0.0000310493            0.0003000000      YES
          RMS step            0.0001955014            0.0020000000      YES
          MAX step            0.0004390326            0.0040000000      YES
          ........................................................
          Max(Bonds)      0.0002      Max(Angles)    0.01
          Max(Dihed)        0.00      Max(Improp)    0.00
          ---------------------------------------------------------------------

                    ***********************HURRAY********************
                    ***        THE OPTIMIZATION HAS CONVERGED     ***
                    *************************************************


    ---------------------------------------------------------------------------
                         Redundant Internal Coordinates

                          --- Optimized Parameters ---  
                            (Angstroem and degrees)

        Definition                    OldVal   dE/dq     Step     FinalVal
    ----------------------------------------------------------------------------
     1. B(H   1,C   0)                1.0776 -0.000004  0.0000    1.0776   
     2. B(H   2,C   0)                1.0776 -0.000003  0.0000    1.0776   
     3. B(H   3,C   0)                1.0776 -0.000009  0.0000    1.0776   
     4. B(I   4,C   0)                2.1975  0.000023 -0.0001    2.1974   
     5. B(I   5,H   2)                3.0275 -0.000015  0.0002    3.0277   
     6. B(I   5,C   0)                3.1640  0.000018 -0.0000    3.1640 C 
     7. B(I   5,H   1)                3.0282 -0.000009  0.0001    3.0283   
     8. B(I   5,H   3)                3.0311  0.000015 -0.0002    3.0309   
     9. A(H   2,C   0,H   3)          111.79 -0.000020    0.00    111.79   
    10. A(H   1,C   0,I   4)          107.04  0.000018   -0.00    107.04   
    11. A(H   2,C   0,I   4)          107.05  0.000028   -0.01    107.04   
    12. A(H   3,C   0,I   4)          107.01 -0.000017    0.00    107.01   
    13. A(H   1,C   0,I   5)           72.93 -0.000013    0.01     72.93   
    14. A(H   2,C   0,I   5)           72.89 -0.000016    0.01     72.90   
    15. A(H   3,C   0,I   5)           73.08 -0.000001   -0.01     73.07   
    16. A(H   1,C   0,H   2)          111.81  0.000027   -0.00    111.81   
    17. A(H   1,C   0,H   3)          111.78 -0.000033    0.01    111.79   
    ----------------------------------------------------------------------------
                 *******************************************************
                 *** FINAL ENERGY EVALUATION AT THE STATIONARY POINT ***
                 ***               (AFTER    1 CYCLES)               ***
                 *******************************************************
      -----------------------------------------------------------      
     |                   =====================                   |     
     |                           x T B                           |     
     |                   =====================                   |     
     |                         S. Grimme                         |     
     |          Mulliken Center for Theoretical Chemistry        |     
     |                    University of Bonn                     |     
      -----------------------------------------------------------      

   * xtb version 6.4.0 (d4b70c2) compiled by 'ehlert@majestix' on 2021-02-01

   xtb is free software: you can redistribute it and/or modify it under
   the terms of the GNU Lesser General Public License as published by
   the Free Software Foundation, either version 3 of the License, or
   (at your option) any later version.
   
   xtb is distributed in the hope that it will be useful,
   but WITHOUT ANY WARRANTY; without even the implied warranty of
   MERCHANTABILITY or FITNESS FOR A PARTICULAR PURPOSE.  See the
   GNU Lesser General Public License for more details.
   
   Cite this work as:
   * C. Bannwarth, E. Caldeweyher, S. Ehlert, A. Hansen, P. Pracht,
     J. Seibert, S. Spicher, S. Grimme, WIREs Comput. Mol. Sci., 2020,
     e01493. DOI: 10.1002/wcms.1493
   
   for GFN2-xTB:
   * C. Bannwarth, S. Ehlert and S. Grimme., J. Chem. Theory Comput., 2019,
     15, 1652-1671. DOI: 10.1021/acs.jctc.8b01176
   for GFN1-xTB:
   * S. Grimme, C. Bannwarth, P. Shushkov, J. Chem. Theory Comput., 2017,
     13, 1989-2009. DOI: 10.1021/acs.jctc.7b00118
   for GFN0-xTB:
   * P. Pracht, E. Caldeweyher, S. Ehlert, S. Grimme, ChemRxiv, 2019, preprint.
     DOI: 10.26434/chemrxiv.8326202.v1
   for GFN-FF:
   * S. Spicher and S. Grimme, Angew. Chem. Int. Ed., 2020, 59, 15665-15673.
     DOI: 10.1002/anie.202004239
   
   for DFT-D4:
   * E. Caldeweyher, C. Bannwarth and S. Grimme, J. Chem. Phys., 2017,
     147, 034112. DOI: 10.1063/1.4993215
   * E. Caldeweyher, S. Ehlert, A. Hansen, H. Neugebauer, S. Spicher,
     C. Bannwarth and S. Grimme, J. Chem. Phys., 2019, 150, 154122.
     DOI: 10.1063/1.5090222
   * E. Caldeweyher, J.-M. Mewes, S. Ehlert and S. Grimme, Phys. Chem. Chem. Phys.
     2020, 22, 8499-8512. DOI: 10.1039/D0CP00502A
   
   for sTDA-xTB:
   * S. Grimme and C. Bannwarth, J. Chem. Phys., 2016, 145, 054103.
     DOI: 10.1063/1.4959605
   
   in the mass-spec context:
   * V. Asgeirsson, C. Bauer and S. Grimme, Chem. Sci., 2017, 8, 4879.
     DOI: 10.1039/c7sc00601b
   * J. Koopman and S. Grimme, ACS Omega 2019, 4, 12, 15120-15133.
     DOI: 10.1021/acsomega.9b02011
   
   for metadynamics refer to:
   * S. Grimme, J. Chem. Theory Comput., 2019, 155, 2847-2862
     DOI: 10.1021/acs.jctc.9b00143
   
   with help from (in alphabetical order)
   P. Atkinson, C. Bannwarth, F. Bohle, G. Brandenburg, E. Caldeweyher
   M. Checinski, S. Dohm, S. Ehlert, S. Ehrlich, I. Gerasimov, J. Koopman
   C. Lavinge, S. Lehtola, F. März, M. Müller, F. Musil, H. Neugebauer
   J. Pisarek, P. Pracht, J. Seibert, P. Shushkov, S. Spicher, M. Stahn
   T. Strunk, J. Stückrath, T. Rose, and J. Unsleber
   
 * started run on 2022/05/09 at 09:18:08.756     

           -------------------------------------------------
          |                Calculation Setup                |
           -------------------------------------------------

          program call               : /opt/orca/otool_xtb scants+numfreq_XTB.xyz --grad -c -1 -u 0 -P 2 --namespace scants+numfreq
          calculation namespace      : scants+numfreq
          coordinate file            : scants+numfreq_XTB.xyz
          omp threads                :                     2
          number of atoms            :                     6
          number of electrons        :                    22
          charge                     :                    -1
          spin                       :                   0.0
          first test random number   :      0.54477653526981

   ID    Z sym.   atoms
    1    6 C      1
    2    1 H      2-4
    3   53 I      5, 6

molecular fragmentation (1/2 indicates fragments):
111112
# atoms in fragment 1/2:     5     1
 fragment masses (1/2) :      141.94      126.90
CMA distance (Bohr)    :   9.679
constraining FC (au)   :  0.0500
########################################################################
[WARNING] Please study the warnings concerning your input carefully
-1- prog_main_parseArguments: Process number higher than OMP_NUM_THREADS, I hope you know what you are doing.
########################################################################

           -------------------------------------------------
          |                 G F N 2 - x T B                 |
           -------------------------------------------------

        Reference                      10.1021/acs.jctc.8b01176
      * Hamiltonian:
        H0-scaling (s, p, d)           1.850000    2.230000    2.230000
        zeta-weighting                 0.500000
      * Dispersion:
        s8                             2.700000
        a1                             0.520000
        a2                             5.000000
        s9                             5.000000
      * Repulsion:
        kExp                           1.500000    1.000000
        rExp                           1.000000
      * Coulomb:
        alpha                          2.000000
        third order                    shell-resolved
        anisotropic                    true
        a3                             3.000000
        a5                             4.000000
        cn-shift                       1.200000
        cn-exp                         4.000000
        max-rad                        5.000000


          ...................................................
          :                      SETUP                      :
          :.................................................:
          :  # basis functions                  27          :
          :  # atomic orbitals                  25          :
          :  # shells                           11          :
          :  # electrons                        22          :
          :  max. iterations                   250          :
          :  Hamiltonian                  GFN2-xTB          :
          :  restarted?                      false          :
          :  GBSA solvation                  false          :
          :  PC potential                    false          :
          :  electronic temp.          300.0000000     K    :
          :  accuracy                    1.0000000          :
          :  -> integral cutoff          0.2500000E+02      :
          :  -> integral neglect         0.1000000E-07      :
          :  -> SCF convergence          0.1000000E-05 Eh   :
          :  -> wf. convergence          0.1000000E-03 e    :
          :  Broyden damping             0.4000000          :
          ...................................................

 iter      E             dE          RMSdq      gap      omega  full diag
   1    -11.6031138 -0.116031E+02  0.113E+01    3.11       0.0  T
   2    -11.6128549 -0.974107E-02  0.526E+00    2.17       1.0  T
   3    -11.6144709 -0.161604E-02  0.162E+00    1.86       1.0  T
   4    -11.6146656 -0.194728E-03  0.120E+00    2.06       1.0  T
   5    -11.6150817 -0.416118E-03  0.548E-01    2.00       1.0  T
   6    -11.6151544 -0.727045E-04  0.271E-01    1.85       1.0  T
   7    -11.6151510  0.349163E-05  0.278E-01    1.85       1.0  T
   8    -11.6152050 -0.540288E-04  0.215E-02    1.92       1.9  T
   9    -11.6152045  0.465119E-06  0.313E-02    1.93       1.3  T
  10    -11.6152051 -0.608791E-06  0.247E-03    1.92      16.5  T
  11    -11.6152051 -0.281971E-08  0.913E-04    1.92      44.7  T
  12    -11.6152051 -0.729045E-09  0.851E-05    1.92     479.6  T

   *** convergence criteria satisfied after 12 iterations ***

         #    Occupation            Energy/Eh            Energy/eV
      -------------------------------------------------------------
         1        2.0000           -0.6087924             -16.5661
       ...           ...                  ...                  ...
         5        2.0000           -0.3710219             -10.0960
         6        2.0000           -0.3502102              -9.5297
         7        2.0000           -0.2841573              -7.7323
         8        2.0000           -0.2841544              -7.7322
         9        2.0000           -0.1797523              -4.8913
        10        2.0000           -0.1742638              -4.7420
        11        2.0000           -0.1742631              -4.7419 (HOMO)
        12                         -0.1036146              -2.8195 (LUMO)
        13                          0.1590793               4.3288
        14                          0.1590854               4.3289
        15                          0.1843314               5.0159
        16                          0.1843488               5.0164
       ...                                ...                  ...
        25                          0.4618651              12.5680
      -------------------------------------------------------------
                  HL-Gap            0.0706485 Eh            1.9224 eV
             Fermi-level           -0.1389388 Eh           -3.7807 eV

 SCC (total)                   0 d,  0 h,  0 min,  0.010 sec
 SCC setup                      ...        0 min,  0.000 sec (  4.905%)
 Dispersion                     ...        0 min,  0.000 sec (  0.457%)
 classical contributions        ...        0 min,  0.000 sec (  0.507%)
 integral evaluation            ...        0 min,  0.002 sec ( 16.115%)
 iterations                     ...        0 min,  0.004 sec ( 38.427%)
 molecular gradient             ...        0 min,  0.003 sec ( 32.738%)
 printout                       ...        0 min,  0.001 sec (  6.394%)

         :::::::::::::::::::::::::::::::::::::::::::::::::::::
         ::                     SUMMARY                     ::
         :::::::::::::::::::::::::::::::::::::::::::::::::::::
         :: total energy             -11.554853668269 Eh    ::
         :: gradient norm              0.000065876998 Eh/a0 ::
         :: HOMO-LUMO gap              1.922443293817 eV    ::
         ::.................................................::
         :: SCC energy               -11.615205131383 Eh    ::
         :: -> isotropic ES            0.140107136513 Eh    ::
         :: -> anisotropic ES         -0.004260724649 Eh    ::
         :: -> anisotropic XC         -0.000641826134 Eh    ::
         :: -> dispersion             -0.003714173167 Eh    ::
         :: repulsion energy           0.060352697133 Eh    ::
         :: add. restraining           0.000000000000 Eh    ::
         :: total charge              -1.000000000000 e     ::
         :::::::::::::::::::::::::::::::::::::::::::::::::::::

           -------------------------------------------------
          |                Property Printout                |
           -------------------------------------------------

    * Orbital Energies and Occupations

         #    Occupation            Energy/Eh            Energy/eV
      -------------------------------------------------------------
         1        2.0000           -0.6087924             -16.5661
         2        2.0000           -0.4745184             -12.9123
         3        2.0000           -0.4435748             -12.0703
         4        2.0000           -0.3710306             -10.0963
         5        2.0000           -0.3710219             -10.0960
         6        2.0000           -0.3502102              -9.5297
         7        2.0000           -0.2841573              -7.7323
         8        2.0000           -0.2841544              -7.7322
         9        2.0000           -0.1797523              -4.8913
        10        2.0000           -0.1742638              -4.7420
        11        2.0000           -0.1742631              -4.7419 (HOMO)
        12                         -0.1036146              -2.8195 (LUMO)
        13                          0.1590793               4.3288
        14                          0.1590854               4.3289
        15                          0.1843314               5.0159
        16                          0.1843488               5.0164
        17                          0.2826139               7.6903
        18                          0.3098035               8.4302
        19                          0.3099455               8.4340
        20                          0.3669740               9.9859
        21                          0.3669802               9.9860
        22                          0.3987501              10.8505
       ...                                ...                  ...
        25                          0.4618651              12.5680
      -------------------------------------------------------------
                  HL-Gap            0.0706485 Eh            1.9224 eV
             Fermi-level           -0.1389388 Eh           -3.7807 eV

     #   Z          covCN         q      C6AA      α(0)
     1   6 C        3.786    -0.020    20.945     6.519
     2   1 H        0.931     0.060     2.194     2.316
     3   1 H        0.931     0.060     2.193     2.316
     4   1 H        0.931     0.060     2.195     2.317
     5  53 I        0.964    -0.276   392.752    34.211
     6  53 I        0.058    -0.885   422.795    35.570

 Mol. C6AA /au·bohr⁶  :       2433.247507
 Mol. C8AA /au·bohr⁸  :     182041.030937
 Mol. α(0) /au        :         83.248196


Wiberg/Mayer (AO) data.
largest (>0.10) Wiberg bond orders for each atom

 ---------------------------------------------------------------------------
     #   Z sym  total        # sym  WBO       # sym  WBO       # sym  WBO
 ---------------------------------------------------------------------------
     1   6 C    3.941 --     4 H    0.999     2 H    0.998     3 H    0.998
                             5 I    0.868
     2   1 H    0.996 --     1 C    0.998
     3   1 H    0.996 --     1 C    0.998
     4   1 H    0.996 --     1 C    0.999
     5  53 I    0.869 --     1 C    0.868
     6  53 I    0.070 -- ---------------------------------------------------------------------------

Topologies differ in total number of bonds
Writing topology from bond orders to xtbtopo.mol

molecular dipole:
                 x           y           z       tot (Debye)
 q only:        7.029      -1.495      -0.019
   full:        6.141      -1.614      -0.015      16.139
molecular quadrupole (traceless):
                xx          xy          yy          xz          yz          zz
 q only:      -68.120      11.754      32.117       0.357      -0.023      36.002
  q+dip:      -73.790       7.314      34.438       0.426       0.001      39.352
   full:      -71.315       7.815      33.234       0.408      -0.002      38.081


           -------------------------------------------------
          | TOTAL ENERGY              -11.554853668269 Eh   |
          | GRADIENT NORM               0.000065876998 Eh/α |
          | HOMO-LUMO GAP               1.922443293817 eV   |
           -------------------------------------------------

------------------------------------------------------------------------
 * finished run on 2022/05/09 at 09:18:08.788     
------------------------------------------------------------------------
 total:
 * wall-time:     0 d,  0 h,  0 min,  0.032 sec
 *  cpu-time:     0 d,  0 h,  0 min,  0.045 sec
 * ratio c/w:     1.406 speedup
 SCF:
 * wall-time:     0 d,  0 h,  0 min,  0.011 sec
 *  cpu-time:     0 d,  0 h,  0 min,  0.017 sec
 * ratio c/w:     1.577 speedup


-------------------------   --------------------
FINAL SINGLE POINT ENERGY       -11.554853668270
-------------------------   --------------------

                                *** OPTIMIZATION RUN DONE ***

Storing optimized geometry in scants+numfreq.001.xyz ... done
Storing optimized geometry and energy in scants+numfreq.xyzall ... done
Storing actual gbw-file in scants+numfreq.001.gbw ... done

         *************************************************************
         *               RELAXED SURFACE SCAN STEP   2               *
         *                                                           *
         *                 Bond (  5,   0)  :   3.05560000           *
         *************************************************************

Geometry optimization settings:
Update method            Update   .... BFGS
Choice of coordinates    CoordSys .... Z-matrix Internals
Initial Hessian          InHess   .... Almoef's Model

Convergence Tolerances:
Energy Change            TolE     ....  5.0000e-06 Eh
Max. Gradient            TolMAXG  ....  3.0000e-04 Eh/bohr
RMS Gradient             TolRMSG  ....  1.0000e-04 Eh/bohr
Max. Displacement        TolMAXD  ....  4.0000e-03 bohr
RMS Displacement         TolRMSD  ....  2.0000e-03 bohr
Strict Convergence                ....  False
------------------------------------------------------------------------------
                        ORCA OPTIMIZATION COORDINATE SETUP
------------------------------------------------------------------------------

The optimization will be done in new redundant internal coordinates
Making redundant internal coordinates   ...  (new redundants) done
Evaluating the initial hessian          ...  (Almloef) done
Evaluating the coordinates              ...  done
Calculating the B-matrix                .... done
Calculating the G-matrix                .... done
Diagonalizing the G-matrix              .... done
Imposing constraints:
 Iter   0:  RMS(Cart)=    0.0211265113 RMS(Int)=    0.1060816798
 Iter   1:  RMS(Cart)=    0.0109405740 RMS(Int)=    0.0549354531
 Iter   2:  RMS(Cart)=    0.0056656851 RMS(Int)=    0.0284488709
 Iter   3:  RMS(Cart)=    0.0029340314 RMS(Int)=    0.0147325308
 Iter   4:  RMS(Cart)=    0.0015194173 RMS(Int)=    0.0076293877
 Iter   5:  RMS(Cart)=    0.0007868454 RMS(Int)=    0.0039509543
 Iter   6:  RMS(Cart)=    0.0004074757 RMS(Int)=    0.0020460410
 Iter   7:  RMS(Cart)=    0.0002110154 RMS(Int)=    0.0010595627
 Iter   8:  RMS(Cart)=    0.0001092764 RMS(Int)=    0.0005487051
 Iter   9:  RMS(Cart)=    0.0000565899 RMS(Int)=    0.0002841524
 Iter  10:  RMS(Cart)=    0.0000293056 RMS(Int)=    0.0001471511
 Iter  11:  RMS(Cart)=    0.0000151762 RMS(Int)=    0.0000762037
 Iter  12:  RMS(Cart)=    0.0000078592 RMS(Int)=    0.0000394628
 Iter  13:  RMS(Cart)=    0.0000040699 RMS(Int)=    0.0000204362
 Iter  14:  RMS(Cart)=    0.0000021077 RMS(Int)=    0.0000105831
 Iter  15:  RMS(Cart)=    0.0000010915 RMS(Int)=    0.0000054806
 Iter  16:  RMS(Cart)=    0.0000005652 RMS(Int)=    0.0000028382
 Iter  17:  RMS(Cart)=    0.0000002927 RMS(Int)=    0.0000014698
 Iter  18:  RMS(Cart)=    0.0000001516 RMS(Int)=    0.0000007611
 Iter  19:  RMS(Cart)=    0.0000000785 RMS(Int)=    0.0000003942
 Iter  20:  RMS(Cart)=    0.0000000407 RMS(Int)=    0.0000002041
 Iter  21:  RMS(Cart)=    0.0000000211 RMS(Int)=    0.0000001057
 Iter  22:  RMS(Cart)=    0.0000000109 RMS(Int)=    0.0000000547
CONVERGED
The first mode is                       ....    5
The number of degrees of freedom        ....   12
Storing new coordinates                 .... done

    -----------------------------------------------------------------
                    Redundant Internal Coordinates


    -----------------------------------------------------------------
         Definition                    Initial Value    Approx d2E/dq
    -----------------------------------------------------------------
      1. B(H   1,C   0)                  1.0813         0.376921   
      2. B(H   2,C   0)                  1.0813         0.376935   
      3. B(H   3,C   0)                  1.0814         0.376864   
      4. B(I   4,C   0)                  2.1974         0.108152   
      5. B(I   5,H   2)                  2.9867         0.000980   
      6. B(I   5,C   0)                  3.0556         0.003104 C 
      7. B(I   5,H   1)                  2.9873         0.000978   
      8. B(I   5,H   3)                  2.9898         0.000969   
      9. A(H   2,C   0,H   3)          114.4787         0.295049   
     10. A(H   1,C   0,I   4)          103.8237         0.283855   
     11. A(H   2,C   0,I   4)          103.8295         0.283857   
     12. A(H   3,C   0,I   4)          103.7998         0.283848   
     13. A(H   1,C   0,I   5)           76.1478         0.176232   
     14. A(H   2,C   0,I   5)           76.1153         0.176233   
     15. A(H   3,C   0,I   5)           76.2839         0.176229   
     16. A(H   1,C   0,H   2)          114.4998         0.295056   
     17. A(H   1,C   0,H   3)          114.4733         0.295047   
    -----------------------------------------------------------------

Number of atoms                         .... 6
Number of degrees of freedom            .... 17

         *************************************************************
         *                GEOMETRY OPTIMIZATION CYCLE   1            *
         *************************************************************
      -----------------------------------------------------------      
     |                   =====================                   |     
     |                           x T B                           |     
     |                   =====================                   |     
     |                         S. Grimme                         |     
     |          Mulliken Center for Theoretical Chemistry        |     
     |                    University of Bonn                     |     
      -----------------------------------------------------------      

   * xtb version 6.4.0 (d4b70c2) compiled by 'ehlert@majestix' on 2021-02-01

   xtb is free software: you can redistribute it and/or modify it under
   the terms of the GNU Lesser General Public License as published by
   the Free Software Foundation, either version 3 of the License, or
   (at your option) any later version.
   
   xtb is distributed in the hope that it will be useful,
   but WITHOUT ANY WARRANTY; without even the implied warranty of
   MERCHANTABILITY or FITNESS FOR A PARTICULAR PURPOSE.  See the
   GNU Lesser General Public License for more details.
   
   Cite this work as:
   * C. Bannwarth, E. Caldeweyher, S. Ehlert, A. Hansen, P. Pracht,
     J. Seibert, S. Spicher, S. Grimme, WIREs Comput. Mol. Sci., 2020,
     e01493. DOI: 10.1002/wcms.1493
   
   for GFN2-xTB:
   * C. Bannwarth, S. Ehlert and S. Grimme., J. Chem. Theory Comput., 2019,
     15, 1652-1671. DOI: 10.1021/acs.jctc.8b01176
   for GFN1-xTB:
   * S. Grimme, C. Bannwarth, P. Shushkov, J. Chem. Theory Comput., 2017,
     13, 1989-2009. DOI: 10.1021/acs.jctc.7b00118
   for GFN0-xTB:
   * P. Pracht, E. Caldeweyher, S. Ehlert, S. Grimme, ChemRxiv, 2019, preprint.
     DOI: 10.26434/chemrxiv.8326202.v1
   for GFN-FF:
   * S. Spicher and S. Grimme, Angew. Chem. Int. Ed., 2020, 59, 15665-15673.
     DOI: 10.1002/anie.202004239
   
   for DFT-D4:
   * E. Caldeweyher, C. Bannwarth and S. Grimme, J. Chem. Phys., 2017,
     147, 034112. DOI: 10.1063/1.4993215
   * E. Caldeweyher, S. Ehlert, A. Hansen, H. Neugebauer, S. Spicher,
     C. Bannwarth and S. Grimme, J. Chem. Phys., 2019, 150, 154122.
     DOI: 10.1063/1.5090222
   * E. Caldeweyher, J.-M. Mewes, S. Ehlert and S. Grimme, Phys. Chem. Chem. Phys.
     2020, 22, 8499-8512. DOI: 10.1039/D0CP00502A
   
   for sTDA-xTB:
   * S. Grimme and C. Bannwarth, J. Chem. Phys., 2016, 145, 054103.
     DOI: 10.1063/1.4959605
   
   in the mass-spec context:
   * V. Asgeirsson, C. Bauer and S. Grimme, Chem. Sci., 2017, 8, 4879.
     DOI: 10.1039/c7sc00601b
   * J. Koopman and S. Grimme, ACS Omega 2019, 4, 12, 15120-15133.
     DOI: 10.1021/acsomega.9b02011
   
   for metadynamics refer to:
   * S. Grimme, J. Chem. Theory Comput., 2019, 155, 2847-2862
     DOI: 10.1021/acs.jctc.9b00143
   
   with help from (in alphabetical order)
   P. Atkinson, C. Bannwarth, F. Bohle, G. Brandenburg, E. Caldeweyher
   M. Checinski, S. Dohm, S. Ehlert, S. Ehrlich, I. Gerasimov, J. Koopman
   C. Lavinge, S. Lehtola, F. März, M. Müller, F. Musil, H. Neugebauer
   J. Pisarek, P. Pracht, J. Seibert, P. Shushkov, S. Spicher, M. Stahn
   T. Strunk, J. Stückrath, T. Rose, and J. Unsleber
   
 * started run on 2022/05/09 at 09:18:08.834     

           -------------------------------------------------
          |                Calculation Setup                |
           -------------------------------------------------

          program call               : /opt/orca/otool_xtb scants+numfreq_XTB.xyz --grad -c -1 -u 0 -P 2 --namespace scants+numfreq
          calculation namespace      : scants+numfreq
          coordinate file            : scants+numfreq_XTB.xyz
          omp threads                :                     2
          number of atoms            :                     6
          number of electrons        :                    22
          charge                     :                    -1
          spin                       :                   0.0
          first test random number   :      0.55928033196313

   ID    Z sym.   atoms
    1    6 C      1
    2    1 H      2-4
    3   53 I      5, 6

molecular fragmentation (1/2 indicates fragments):
111112
# atoms in fragment 1/2:     5     1
 fragment masses (1/2) :      141.94      126.90
CMA distance (Bohr)    :   9.477
constraining FC (au)   :  0.0500
########################################################################
[WARNING] Please study the warnings concerning your input carefully
-1- prog_main_parseArguments: Process number higher than OMP_NUM_THREADS, I hope you know what you are doing.
########################################################################

           -------------------------------------------------
          |                 G F N 2 - x T B                 |
           -------------------------------------------------

        Reference                      10.1021/acs.jctc.8b01176
      * Hamiltonian:
        H0-scaling (s, p, d)           1.850000    2.230000    2.230000
        zeta-weighting                 0.500000
      * Dispersion:
        s8                             2.700000
        a1                             0.520000
        a2                             5.000000
        s9                             5.000000
      * Repulsion:
        kExp                           1.500000    1.000000
        rExp                           1.000000
      * Coulomb:
        alpha                          2.000000
        third order                    shell-resolved
        anisotropic                    true
        a3                             3.000000
        a5                             4.000000
        cn-shift                       1.200000
        cn-exp                         4.000000
        max-rad                        5.000000


          ...................................................
          :                      SETUP                      :
          :.................................................:
          :  # basis functions                  27          :
          :  # atomic orbitals                  25          :
          :  # shells                           11          :
          :  # electrons                        22          :
          :  max. iterations                   250          :
          :  Hamiltonian                  GFN2-xTB          :
          :  restarted?                      false          :
          :  GBSA solvation                  false          :
          :  PC potential                    false          :
          :  electronic temp.          300.0000000     K    :
          :  accuracy                    1.0000000          :
          :  -> integral cutoff          0.2500000E+02      :
          :  -> integral neglect         0.1000000E-07      :
          :  -> SCF convergence          0.1000000E-05 Eh   :
          :  -> wf. convergence          0.1000000E-03 e    :
          :  Broyden damping             0.4000000          :
          ...................................................

 iter      E             dE          RMSdq      gap      omega  full diag
   1    -11.5989940 -0.115990E+02  0.118E+01    3.46       0.0  T
   2    -11.6097268 -0.107328E-01  0.563E+00    2.48       1.0  T
   3    -11.6114795 -0.175267E-02  0.175E+00    2.16       1.0  T
   4    -11.6116119 -0.132464E-03  0.138E+00    2.33       1.0  T
   5    -11.6122047 -0.592816E-03  0.591E-01    2.29       1.0  T
   6    -11.6122894 -0.846939E-04  0.283E-01    2.14       1.0  T
   7    -11.6122916 -0.219341E-05  0.279E-01    2.14       1.0  T
   8    -11.6123454 -0.537892E-04  0.252E-02    2.21       1.6  T
   9    -11.6123449  0.563862E-06  0.348E-02    2.22       1.2  T
  10    -11.6123456 -0.748238E-06  0.281E-03    2.21      14.5  T
  11    -11.6123456 -0.352637E-08  0.754E-04    2.21      54.1  T
  12    -11.6123456 -0.586711E-09  0.453E-05    2.21     902.0  T

   *** convergence criteria satisfied after 12 iterations ***

         #    Occupation            Energy/Eh            Energy/eV
      -------------------------------------------------------------
         1        2.0000           -0.6038008             -16.4303
       ...           ...                  ...                  ...
         5        2.0000           -0.3707429             -10.0884
         6        2.0000           -0.3434642              -9.3461
         7        2.0000           -0.2795734              -7.6076
         8        2.0000           -0.2795693              -7.6075
         9        2.0000           -0.1830616              -4.9814
        10        2.0000           -0.1773740              -4.8266
        11        2.0000           -0.1773734              -4.8266 (HOMO)
        12                         -0.0961093              -2.6153 (LUMO)
        13                          0.1644618               4.4752
        14                          0.1644744               4.4756
        15                          0.1918742               5.2212
        16                          0.1918887               5.2216
       ...                                ...                  ...
        25                          0.4675749              12.7234
      -------------------------------------------------------------
                  HL-Gap            0.0812641 Eh            2.2113 eV
             Fermi-level           -0.1367413 Eh           -3.7209 eV

 SCC (total)                   0 d,  0 h,  0 min,  0.010 sec
 SCC setup                      ...        0 min,  0.000 sec (  1.762%)
 Dispersion                     ...        0 min,  0.000 sec (  0.641%)
 classical contributions        ...        0 min,  0.000 sec (  0.182%)
 integral evaluation            ...        0 min,  0.001 sec ( 15.221%)
 iterations                     ...        0 min,  0.006 sec ( 56.610%)
 molecular gradient             ...        0 min,  0.002 sec ( 19.017%)
 printout                       ...        0 min,  0.001 sec (  6.128%)

         :::::::::::::::::::::::::::::::::::::::::::::::::::::
         ::                     SUMMARY                     ::
         :::::::::::::::::::::::::::::::::::::::::::::::::::::
         :: total energy             -11.553642821934 Eh    ::
         :: gradient norm              0.016203957155 Eh/a0 ::
         :: HOMO-LUMO gap              2.211309945246 eV    ::
         ::.................................................::
         :: SCC energy               -11.612345607473 Eh    ::
         :: -> isotropic ES            0.137835063564 Eh    ::
         :: -> anisotropic ES         -0.004518649052 Eh    ::
         :: -> anisotropic XC         -0.001231214156 Eh    ::
         :: -> dispersion             -0.003789766817 Eh    ::
         :: repulsion energy           0.058703799456 Eh    ::
         :: add. restraining           0.000000000000 Eh    ::
         :: total charge              -1.000000000000 e     ::
         :::::::::::::::::::::::::::::::::::::::::::::::::::::

           -------------------------------------------------
          |                Property Printout                |
           -------------------------------------------------

    * Orbital Energies and Occupations

         #    Occupation            Energy/Eh            Energy/eV
      -------------------------------------------------------------
         1        2.0000           -0.6038008             -16.4303
         2        2.0000           -0.4714937             -12.8300
         3        2.0000           -0.4486649             -12.2088
         4        2.0000           -0.3707464             -10.0885
         5        2.0000           -0.3707429             -10.0884
         6        2.0000           -0.3434642              -9.3461
         7        2.0000           -0.2795734              -7.6076
         8        2.0000           -0.2795693              -7.6075
         9        2.0000           -0.1830616              -4.9814
        10        2.0000           -0.1773740              -4.8266
        11        2.0000           -0.1773734              -4.8266 (HOMO)
        12                         -0.0961093              -2.6153 (LUMO)
        13                          0.1644618               4.4752
        14                          0.1644744               4.4756
        15                          0.1918742               5.2212
        16                          0.1918887               5.2216
        17                          0.2548787               6.9356
        18                          0.3097716               8.4293
        19                          0.3098704               8.4320
        20                          0.3604171               9.8074
        21                          0.3604247               9.8077
        22                          0.3953170              10.7571
       ...                                ...                  ...
        25                          0.4675749              12.7234
      -------------------------------------------------------------
                  HL-Gap            0.0812641 Eh            2.2113 eV
             Fermi-level           -0.1367413 Eh           -3.7209 eV

     #   Z          covCN         q      C6AA      α(0)
     1   6 C        3.850    -0.013    20.780     6.484
     2   1 H        0.934     0.059     2.215     2.327
     3   1 H        0.934     0.059     2.214     2.327
     4   1 H        0.934     0.058     2.217     2.328
     5  53 I        0.976    -0.295   394.236    34.276
     6  53 I        0.124    -0.867   421.354    35.509

 Mol. C6AA /au·bohr⁶  :       2433.778644
 Mol. C8AA /au·bohr⁸  :     182039.025917
 Mol. α(0) /au        :         83.250138


Wiberg/Mayer (AO) data.
largest (>0.10) Wiberg bond orders for each atom

 ---------------------------------------------------------------------------
     #   Z sym  total        # sym  WBO       # sym  WBO       # sym  WBO
 ---------------------------------------------------------------------------
     1   6 C    3.945 --     4 H    1.002     2 H    1.002     3 H    1.002
                             5 I    0.846
     2   1 H    0.997 --     1 C    1.002
     3   1 H    0.997 --     1 C    1.002
     4   1 H    0.997 --     1 C    1.002
     5  53 I    0.941 --     1 C    0.846
     6  53 I    0.180 -- ---------------------------------------------------------------------------

Topologies differ in total number of bonds
Writing topology from bond orders to xtbtopo.mol

molecular dipole:
                 x           y           z       tot (Debye)
 q only:        6.779      -1.528      -0.018
   full:        5.901      -1.646      -0.014      15.570
molecular quadrupole (traceless):
                xx          xy          yy          xz          yz          zz
 q only:      -64.868      11.482      30.413       0.339      -0.021      34.455
  q+dip:      -71.996       6.782      33.447       0.418       0.004      38.550
   full:      -69.260       7.337      32.116       0.399       0.002      37.144


           -------------------------------------------------
          | TOTAL ENERGY              -11.553642821934 Eh   |
          | GRADIENT NORM               0.016203957155 Eh/α |
          | HOMO-LUMO GAP               2.211309945246 eV   |
           -------------------------------------------------

------------------------------------------------------------------------
 * finished run on 2022/05/09 at 09:18:08.861     
------------------------------------------------------------------------
 total:
 * wall-time:     0 d,  0 h,  0 min,  0.027 sec
 *  cpu-time:     0 d,  0 h,  0 min,  0.040 sec
 * ratio c/w:     1.484 speedup
 SCF:
 * wall-time:     0 d,  0 h,  0 min,  0.010 sec
 *  cpu-time:     0 d,  0 h,  0 min,  0.017 sec
 * ratio c/w:     1.672 speedup


-------------------------   --------------------
FINAL SINGLE POINT ENERGY       -11.553642821930
-------------------------   --------------------

------------------------------------------------------------------------------
                         ORCA GEOMETRY RELAXATION STEP
------------------------------------------------------------------------------

Reading the OPT-File                    .... done
Getting information on internals        .... done
Copying old internal coords+grads       .... done
Making the new internal coordinates     .... (new redundants).... done
Validating the new internal coordinates .... (new redundants).... done
Calculating the B-matrix                .... done
Calculating the G,G- and P matrices     .... done
Transforming gradient to internals      .... done
Projecting the internal gradient        .... done
Number of atoms                         ....   6
Number of internal coordinates          ....  17
Current Energy                          ....   -11.553642822 Eh
Current gradient norm                   ....     0.016203957 Eh/bohr
Maximum allowed component of the step   ....  0.300
Current trust radius                    ....  0.300
Evaluating the initial hessian          ....  (Almloef) done
Projecting the Hessian                  .... done
Forming the augmented Hessian           .... done
Diagonalizing the augmented Hessian     .... done
Last element of RFO vector              ....  0.993281841
Lowest eigenvalues of augmented Hessian:
 -0.001512637  0.036853432  0.036856301  0.096275216  0.109034438
Length of the computed step             ....  0.116502968
The final length of the internal step   ....  0.116502968
Converting the step to cartesian space:
 Initial RMS(Int)=    0.0282561203
Transforming coordinates:
 Iter   0:  RMS(Cart)=    0.0251202496 RMS(Int)=    0.0282857646
 Iter   1:  RMS(Cart)=    0.0001184279 RMS(Int)=    0.0001586990
 Iter   2:  RMS(Cart)=    0.0000017884 RMS(Int)=    0.0000019145
 Iter   3:  RMS(Cart)=    0.0000000123 RMS(Int)=    0.0000000162
Imposing constraints:
 Iter   0:  RMS(Cart)=    0.0000211865 RMS(Int)=    0.0000993656
 Iter   1:  RMS(Cart)=    0.0000106385 RMS(Int)=    0.0000498950
 Iter   2:  RMS(Cart)=    0.0000053420 RMS(Int)=    0.0000250540
 Iter   3:  RMS(Cart)=    0.0000026824 RMS(Int)=    0.0000125805
 Iter   4:  RMS(Cart)=    0.0000013469 RMS(Int)=    0.0000063171
 Iter   5:  RMS(Cart)=    0.0000006763 RMS(Int)=    0.0000031720
 Iter   6:  RMS(Cart)=    0.0000003396 RMS(Int)=    0.0000015928
 Iter   7:  RMS(Cart)=    0.0000001705 RMS(Int)=    0.0000007998
 Iter   8:  RMS(Cart)=    0.0000000856 RMS(Int)=    0.0000004016
 Iter   9:  RMS(Cart)=    0.0000000430 RMS(Int)=    0.0000002017
 Iter  10:  RMS(Cart)=    0.0000000216 RMS(Int)=    0.0000001013
 Iter  11:  RMS(Cart)=    0.0000000108 RMS(Int)=    0.0000000508
CONVERGED
done
Storing new coordinates                 .... done

                                .--------------------.
          ----------------------|Geometry convergence|-------------------------
          Item                value                   Tolerance       Converged
          ---------------------------------------------------------------------
          RMS gradient        0.0033747105            0.0001000000      NO
          MAX gradient        0.0096389816            0.0003000000      NO
          RMS step            0.0282561203            0.0020000000      NO
          MAX step            0.0878950138            0.0040000000      NO
          ........................................................
          Max(Bonds)      0.0465      Max(Angles)    0.93
          Max(Dihed)        0.00      Max(Improp)    0.00
          ---------------------------------------------------------------------

The optimization has not yet converged - more geometry cycles are needed


    ---------------------------------------------------------------------------
                         Redundant Internal Coordinates
                            (Angstroem and degrees)

        Definition                    Value    dE/dq     Step     New-Value
    ----------------------------------------------------------------------------
     1. B(H   1,C   0)                1.0813  0.004389 -0.0064    1.0749   
     2. B(H   2,C   0)                1.0813  0.004377 -0.0064    1.0749   
     3. B(H   3,C   0)                1.0814  0.004440 -0.0065    1.0750   
     4. B(I   4,C   0)                2.1974 -0.009639  0.0465    2.2439   
     5. B(I   5,H   2)                2.9867  0.001168 -0.0177    2.9690   
     6. B(I   5,C   0)                3.0556 -0.006031 -0.0000    3.0556 C 
     7. B(I   5,H   1)                2.9873  0.001176 -0.0178    2.9695   
     8. B(I   5,H   3)                2.9898  0.001208 -0.0182    2.9716   
     9. A(H   2,C   0,H   3)          114.48  0.002372   -0.70    113.78   
    10. A(H   1,C   0,I   4)          103.82 -0.003106    0.91    104.74   
    11. A(H   2,C   0,I   4)          103.83 -0.003101    0.91    104.74   
    12. A(H   3,C   0,I   4)          103.80 -0.003126    0.92    104.72   
    13. A(H   1,C   0,I   5)           76.15  0.003109   -0.91     75.24   
    14. A(H   2,C   0,I   5)           76.12  0.003107   -0.90     75.21   
    15. A(H   3,C   0,I   5)           76.28  0.003117   -0.93     75.35   
    16. A(H   1,C   0,H   2)          114.50  0.002399   -0.70    113.80   
    17. A(H   1,C   0,H   3)          114.47  0.002365   -0.70    113.78   
    ----------------------------------------------------------------------------

         *************************************************************
         *                GEOMETRY OPTIMIZATION CYCLE   2            *
         *************************************************************
      -----------------------------------------------------------      
     |                   =====================                   |     
     |                           x T B                           |     
     |                   =====================                   |     
     |                         S. Grimme                         |     
     |          Mulliken Center for Theoretical Chemistry        |     
     |                    University of Bonn                     |     
      -----------------------------------------------------------      

   * xtb version 6.4.0 (d4b70c2) compiled by 'ehlert@majestix' on 2021-02-01

   xtb is free software: you can redistribute it and/or modify it under
   the terms of the GNU Lesser General Public License as published by
   the Free Software Foundation, either version 3 of the License, or
   (at your option) any later version.
   
   xtb is distributed in the hope that it will be useful,
   but WITHOUT ANY WARRANTY; without even the implied warranty of
   MERCHANTABILITY or FITNESS FOR A PARTICULAR PURPOSE.  See the
   GNU Lesser General Public License for more details.
   
   Cite this work as:
   * C. Bannwarth, E. Caldeweyher, S. Ehlert, A. Hansen, P. Pracht,
     J. Seibert, S. Spicher, S. Grimme, WIREs Comput. Mol. Sci., 2020,
     e01493. DOI: 10.1002/wcms.1493
   
   for GFN2-xTB:
   * C. Bannwarth, S. Ehlert and S. Grimme., J. Chem. Theory Comput., 2019,
     15, 1652-1671. DOI: 10.1021/acs.jctc.8b01176
   for GFN1-xTB:
   * S. Grimme, C. Bannwarth, P. Shushkov, J. Chem. Theory Comput., 2017,
     13, 1989-2009. DOI: 10.1021/acs.jctc.7b00118
   for GFN0-xTB:
   * P. Pracht, E. Caldeweyher, S. Ehlert, S. Grimme, ChemRxiv, 2019, preprint.
     DOI: 10.26434/chemrxiv.8326202.v1
   for GFN-FF:
   * S. Spicher and S. Grimme, Angew. Chem. Int. Ed., 2020, 59, 15665-15673.
     DOI: 10.1002/anie.202004239
   
   for DFT-D4:
   * E. Caldeweyher, C. Bannwarth and S. Grimme, J. Chem. Phys., 2017,
     147, 034112. DOI: 10.1063/1.4993215
   * E. Caldeweyher, S. Ehlert, A. Hansen, H. Neugebauer, S. Spicher,
     C. Bannwarth and S. Grimme, J. Chem. Phys., 2019, 150, 154122.
     DOI: 10.1063/1.5090222
   * E. Caldeweyher, J.-M. Mewes, S. Ehlert and S. Grimme, Phys. Chem. Chem. Phys.
     2020, 22, 8499-8512. DOI: 10.1039/D0CP00502A
   
   for sTDA-xTB:
   * S. Grimme and C. Bannwarth, J. Chem. Phys., 2016, 145, 054103.
     DOI: 10.1063/1.4959605
   
   in the mass-spec context:
   * V. Asgeirsson, C. Bauer and S. Grimme, Chem. Sci., 2017, 8, 4879.
     DOI: 10.1039/c7sc00601b
   * J. Koopman and S. Grimme, ACS Omega 2019, 4, 12, 15120-15133.
     DOI: 10.1021/acsomega.9b02011
   
   for metadynamics refer to:
   * S. Grimme, J. Chem. Theory Comput., 2019, 155, 2847-2862
     DOI: 10.1021/acs.jctc.9b00143
   
   with help from (in alphabetical order)
   P. Atkinson, C. Bannwarth, F. Bohle, G. Brandenburg, E. Caldeweyher
   M. Checinski, S. Dohm, S. Ehlert, S. Ehrlich, I. Gerasimov, J. Koopman
   C. Lavinge, S. Lehtola, F. März, M. Müller, F. Musil, H. Neugebauer
   J. Pisarek, P. Pracht, J. Seibert, P. Shushkov, S. Spicher, M. Stahn
[...]
         2        2.0000           -0.5264147             -14.3245
         3        2.0000           -0.4577727             -12.4566
         4        2.0000           -0.3603823              -9.8065
         5        2.0000           -0.3603823              -9.8065
         6        2.0000           -0.2892254              -7.8702
         7        2.0000           -0.2269451              -6.1755
         8        2.0000           -0.2269451              -6.1755
         9        2.0000           -0.2244918              -6.1087
        10        2.0000           -0.2244918              -6.1087
        11        2.0000           -0.2214870              -6.0270 (HOMO)
        12                         -0.1150625              -3.1310 (LUMO)
        13                          0.2402826               6.5384
        14                          0.2530736               6.8865
        15                          0.2530737               6.8865
        16                          0.2533725               6.8946
        17                          0.2533725               6.8946
        18                          0.2637743               7.1777
        19                          0.2637743               7.1777
        20                          0.2704950               7.3605
        21                          0.2704951               7.3605
        22                          0.3493500               9.5063
       ...                                ...                  ...
        25                          0.4610254              12.5451
      -------------------------------------------------------------
                  HL-Gap            0.1064246 Eh            2.8960 eV
             Fermi-level           -0.1682747 Eh           -4.5790 eV

     #   Z          covCN         q      C6AA      α(0)
     1   6 C        4.142    -0.022    20.881     6.490
     2   1 H        0.929     0.056     2.251     2.346
     3   1 H        0.929     0.056     2.251     2.346
     4   1 H        0.929     0.056     2.251     2.346
     5  53 I        0.684    -0.572   415.238    35.182
     6  53 I        0.683    -0.572   415.227    35.182

 Mol. C6AA /au·bohr⁶  :       2475.244493
 Mol. C8AA /au·bohr⁸  :     185251.533403
 Mol. α(0) /au        :         83.892667


Wiberg/Mayer (AO) data.
largest (>0.10) Wiberg bond orders for each atom

 ---------------------------------------------------------------------------
     #   Z sym  total        # sym  WBO       # sym  WBO       # sym  WBO
 ---------------------------------------------------------------------------
     1   6 C    3.952 --     4 H    1.008     3 H    1.008     2 H    1.008
                             6 I    0.464     5 I    0.464
     2   1 H    0.997 --     1 C    1.008
     3   1 H    0.997 --     1 C    1.008
     4   1 H    0.997 --     1 C    1.008
     5  53 I    0.630 --     1 C    0.464     6 I    0.185
     6  53 I    0.631 --     1 C    0.464     5 I    0.185
 ---------------------------------------------------------------------------

Topologies differ in total number of bonds
Writing topology from bond orders to xtbtopo.mol

molecular dipole:
                 x           y           z       tot (Debye)
 q only:        3.625      -1.946      -0.000
   full:        3.623      -1.946       0.000      10.453
molecular quadrupole (traceless):
                xx          xy          yy          xz          yz          zz
 q only:      -38.883       4.999      16.231       0.214       0.028      22.653
  q+dip:      -52.245       2.295      22.731       0.317       0.042      29.514
   full:      -49.315       2.887      21.306       0.294       0.039      28.010


           -------------------------------------------------
          | TOTAL ENERGY              -11.548148228780 Eh   |
          | GRADIENT NORM               0.000426154757 Eh/α |
          | HOMO-LUMO GAP               2.895959587973 eV   |
           -------------------------------------------------

------------------------------------------------------------------------
 * finished run on 2022/05/09 at 09:18:12.646     
------------------------------------------------------------------------
 total:
 * wall-time:     0 d,  0 h,  0 min,  0.019 sec
 *  cpu-time:     0 d,  0 h,  0 min,  0.026 sec
 * ratio c/w:     1.406 speedup
 SCF:
 * wall-time:     0 d,  0 h,  0 min,  0.006 sec
 *  cpu-time:     0 d,  0 h,  0 min,  0.011 sec
 * ratio c/w:     1.891 speedup


-------------------------   --------------------
FINAL SINGLE POINT ENERGY       -11.548148228780
-------------------------   --------------------

                                *** OPTIMIZATION RUN DONE ***

----------------------------------------------------------------------------
                           ORCA NUMERICAL FREQUENCIES
                              (2-process run)
----------------------------------------------------------------------------

Number of atoms                ... 6
Central differences            ... used
Number of displacements        ... 36
Numerical increment            ... 5.000e-03 bohr
IR-spectrum generation         ... on
Raman-spectrum generation      ... off
Surface Crossing Hessian       ... off
List of participating nodes    ...  scants+numfreq.hostnames

The output will be reduced. Please look at the following files:
SCF program output             ... >scants+numfreq.lastscf
Integral program output        ... >scants+numfreq.lastint
Gradient program output        ... >scants+numfreq.lastgrad
Dipole moment program output   ... >scants+numfreq.lastmom
AutoCI program output          ... >scants+numfreq.lastautoci


         <<< Energy and Gradient at the input geometry >>>

        <<< Energy and Gradient at displaced geometries >>>
             <<<Displacing   1/coordinate 2 (+)>>>
             <<<Displacing   1/coordinate 1 (+)>>>
             <<<Displacing   1/coordinate 1 (-)>>>
             <<<Displacing   1/coordinate 2 (-)>>>
             <<<Displacing   1/coordinate 3 (+)>>>
             <<<Displacing   1/coordinate 3 (-)>>>
             <<<Displacing   2/coordinate 1 (+)>>>
             <<<Displacing   2/coordinate 1 (-)>>>
             <<<Displacing   2/coordinate 2 (+)>>>
             <<<Displacing   2/coordinate 2 (-)>>>
             <<<Displacing   2/coordinate 3 (+)>>>
             <<<Displacing   2/coordinate 3 (-)>>>
             <<<Displacing   3/coordinate 1 (+)>>>
             <<<Displacing   3/coordinate 2 (+)>>>
             <<<Displacing   3/coordinate 2 (-)>>>
             <<<Displacing   3/coordinate 1 (-)>>>
             <<<Displacing   4/coordinate 1 (+)>>>
             <<<Displacing   4/coordinate 1 (-)>>>
             <<<Displacing   3/coordinate 3 (+)>>>
             <<<Displacing   3/coordinate 3 (-)>>>
             <<<Displacing   4/coordinate 2 (+)>>>
             <<<Displacing   4/coordinate 2 (-)>>>
             <<<Displacing   4/coordinate 3 (+)>>>
             <<<Displacing   4/coordinate 3 (-)>>>
             <<<Displacing   5/coordinate 1 (+)>>>
             <<<Displacing   5/coordinate 2 (+)>>>
             <<<Displacing   5/coordinate 1 (-)>>>
             <<<Displacing   5/coordinate 2 (-)>>>
             <<<Displacing   5/coordinate 3 (+)>>>
             <<<Displacing   6/coordinate 1 (+)>>>
             <<<Displacing   5/coordinate 3 (-)>>>
             <<<Displacing   6/coordinate 1 (-)>>>
             <<<Displacing   6/coordinate 2 (+)>>>
             <<<Displacing   6/coordinate 2 (-)>>>
             <<<Displacing   6/coordinate 3 (+)>>>
             <<<Displacing   6/coordinate 3 (-)>>>

-----------------------
VIBRATIONAL FREQUENCIES
-----------------------

Scaling factor for frequencies =  1.000000000 (already applied!)

   0:         0.00 cm**-1
   1:         0.00 cm**-1
   2:         0.00 cm**-1
   3:         0.00 cm**-1
   4:         0.00 cm**-1
   5:         0.00 cm**-1
   6:      -298.81 cm**-1 ***imaginary mode***
   7:       117.23 cm**-1
   8:       168.80 cm**-1
   9:       168.80 cm**-1
  10:       971.32 cm**-1
  11:      1004.16 cm**-1
  12:      1004.17 cm**-1
  13:      1337.98 cm**-1
  14:      1338.01 cm**-1
  15:      3161.90 cm**-1
  16:      3249.23 cm**-1
  17:      3249.26 cm**-1


------------
NORMAL MODES
------------

These modes are the cartesian displacements weighted by the diagonal matrix
M(i,i)=1/sqrt(m[i]) where m[i] is the mass of the displaced atom
Thus, these vectors are normalized but *not* orthogonal

                  0          1          2          3          4          5    
      0       0.000000   0.000000   0.000000   0.000000   0.000000   0.000000
      1       0.000000   0.000000   0.000000   0.000000   0.000000   0.000000
      2       0.000000   0.000000   0.000000   0.000000   0.000000   0.000000
      3       0.000000   0.000000   0.000000   0.000000   0.000000   0.000000
      4       0.000000   0.000000   0.000000   0.000000   0.000000   0.000000
      5       0.000000   0.000000   0.000000   0.000000   0.000000   0.000000
      6       0.000000   0.000000   0.000000   0.000000   0.000000   0.000000
      7       0.000000   0.000000   0.000000   0.000000   0.000000   0.000000
      8       0.000000   0.000000   0.000000   0.000000   0.000000   0.000000
      9       0.000000   0.000000   0.000000   0.000000   0.000000   0.000000
     10       0.000000   0.000000   0.000000   0.000000   0.000000   0.000000
     11       0.000000   0.000000   0.000000   0.000000   0.000000   0.000000
     12       0.000000   0.000000   0.000000   0.000000   0.000000   0.000000
     13       0.000000   0.000000   0.000000   0.000000   0.000000   0.000000
     14       0.000000   0.000000   0.000000   0.000000   0.000000   0.000000
     15       0.000000   0.000000   0.000000   0.000000   0.000000   0.000000
     16       0.000000   0.000000   0.000000   0.000000   0.000000   0.000000
     17       0.000000   0.000000   0.000000   0.000000   0.000000   0.000000
                  6          7          8          9         10         11    
      0      -0.987189  -0.000792  -0.063535  -0.013742   0.011316   0.000017
      1      -0.131738  -0.001098   0.479330   0.084500   0.001510  -0.000128
      2       0.005034  -0.000075   0.085574  -0.483520  -0.000058   0.000001
      3      -0.034029   0.001435  -0.064531  -0.013025  -0.572278  -0.636772
      4      -0.005214   0.003521   0.490119   0.081854  -0.075931  -0.084053
      5       0.000656  -0.003454   0.092244  -0.494988   0.002602   0.003424
      6      -0.034109   0.001947  -0.065367  -0.014844  -0.572178  -0.114566
      7      -0.004703   0.000024   0.494596   0.088432  -0.076260  -0.014163
      8      -0.000619   0.005311   0.085464  -0.490447   0.003436   0.000536
      9      -0.034207   0.002679  -0.065019  -0.014310  -0.572182   0.750931
     10      -0.003873  -0.005748   0.486458   0.089061  -0.076810   0.100981
     11       0.000457  -0.002129   0.084933  -0.498571   0.002733  -0.003974
     12       0.047063   0.700866   0.003824   0.000822   0.006301   0.000262
     13       0.006281   0.093552  -0.028526  -0.005029   0.000841  -0.001966
     14      -0.000240  -0.003576  -0.005094   0.028781  -0.000032  -0.000003
     15       0.047187  -0.700839   0.003738   0.000814   0.006263  -0.000261
     16       0.006297  -0.093431  -0.028528  -0.005029   0.000836   0.001956
     17      -0.000240   0.003585  -0.005092   0.028772  -0.000032   0.000003
                 12         13         14         15         16         17    
      0       0.000000   0.004591  -0.012131   0.000117  -0.012088  -0.004875
      1      -0.000000  -0.037867   0.089474   0.000031   0.089072   0.039987
      2      -0.000129  -0.090291  -0.038141  -0.000021  -0.040280   0.089886
      3       0.499626  -0.062559   0.009469   0.061430   0.082963  -0.023593
      4       0.066829   0.489783  -0.087239  -0.450719  -0.609051   0.174867
      5      -0.001573   0.607192  -0.200195   0.355921   0.492638  -0.090845
      6      -0.801202  -0.025496   0.103627   0.007304  -0.007666   0.008375
      7      -0.106928   0.196578  -0.770890  -0.080473   0.067524  -0.098337
      8       0.004848  -0.082905   0.095317  -0.571516   0.217827  -0.773682
      9       0.301509   0.035060   0.026955  -0.070210   0.067050   0.072624
     10       0.040089  -0.249205  -0.174796   0.530773  -0.507411  -0.547426
     11      -0.000475   0.518084   0.545196   0.215845  -0.236116  -0.194002
     12      -0.000010  -0.000007   0.000018   0.000053   0.000007   0.000003
     13       0.000002   0.000056  -0.000133   0.000007  -0.000049  -0.000022
     14      -0.001983   0.000134   0.000057  -0.000000   0.000022  -0.000050
     15       0.000011  -0.000007   0.000018  -0.000052   0.000007   0.000003
     16      -0.000002   0.000056  -0.000131  -0.000007  -0.000049  -0.000022
     17       0.001973   0.000132   0.000056   0.000000   0.000022  -0.000050


-----------
IR SPECTRUM  
-----------

 Mode    freq (cm**-1)   T**2         TX         TY         TZ
-------------------------------------------------------------------
   7:       117.23    0.000000  (  0.000000   0.000000   0.000000)
   8:       168.80    0.000000  (  0.000000   0.000000   0.000000)
   9:       168.80    0.000000  (  0.000000   0.000000   0.000000)
  10:       971.32    0.000000  (  0.000000   0.000000   0.000000)
  11:      1004.16    0.000000  (  0.000000   0.000000   0.000000)
  12:      1004.17    0.000000  (  0.000000   0.000000   0.000000)
  13:      1337.98    0.000000  (  0.000000   0.000000   0.000000)
  14:      1338.01    0.000000  (  0.000000   0.000000   0.000000)
  15:      3161.90    0.000000  (  0.000000   0.000000   0.000000)
  16:      3249.23    0.000000  (  0.000000   0.000000   0.000000)
  17:      3249.26    0.000000  (  0.000000   0.000000   0.000000)

The first frequency considered to be a vibration is 7
The total number of vibrations considered is 11


--------------------------
THERMOCHEMISTRY AT 298.15K
--------------------------

Temperature         ... 298.15 K
Pressure            ... 1.00 atm
Total Mass          ... 268.84 AMU

Throughout the following assumptions are being made:
  (1) The electronic state is orbitally nondegenerate
  (2) There are no thermally accessible electronically excited states
  (3) Hindered rotations indicated by low frequency modes are not
      treated as such but are treated as vibrations and this may
      cause some error
  (4) All equations used are the standard statistical mechanics
      equations for an ideal gas
  (5) All vibrations are strictly harmonic

freq.     117.23  E(vib)   ...       0.44 
freq.     168.80  E(vib)   ...       0.38 
freq.     168.80  E(vib)   ...       0.38 
freq.     971.32  E(vib)   ...       0.03 
freq.    1004.16  E(vib)   ...       0.02 
freq.    1004.17  E(vib)   ...       0.02 
freq.    1337.98  E(vib)   ...       0.01 
freq.    1338.01  E(vib)   ...       0.01 
freq.    3161.90  E(vib)   ...       0.00 
freq.    3249.23  E(vib)   ...       0.00 
freq.    3249.26  E(vib)   ...       0.00 

------------
INNER ENERGY
------------

The inner energy is: U= E(el) + E(ZPE) + E(vib) + E(rot) + E(trans)
    E(el)   - is the total energy from the electronic structure calculation
              = E(kin-el) + E(nuc-el) + E(el-el) + E(nuc-nuc)
    E(ZPE)  - the the zero temperature vibrational energy from the frequency calculation
    E(vib)  - the the finite temperature correction to E(ZPE) due to population
              of excited vibrational states
    E(rot)  - is the rotational thermal energy
    E(trans)- is the translational thermal energy

Summary of contributions to the inner energy U:
Electronic energy                ...    -11.54814823 Eh
Zero point energy                ...      0.03592866 Eh      22.55 kcal/mol
Thermal vibrational correction   ...      0.00205764 Eh       1.29 kcal/mol
Thermal rotational correction    ...      0.00141627 Eh       0.89 kcal/mol
Thermal translational correction ...      0.00141627 Eh       0.89 kcal/mol
-----------------------------------------------------------------------
Total thermal energy                    -11.50732939 Eh


Summary of corrections to the electronic energy:
(perhaps to be used in another calculation)
Total thermal correction                  0.00489018 Eh       3.07 kcal/mol
Non-thermal (ZPE) correction              0.03592866 Eh      22.55 kcal/mol
-----------------------------------------------------------------------
Total correction                          0.04081884 Eh      25.61 kcal/mol


--------
ENTHALPY
--------

The enthalpy is H = U + kB*T
                kB is Boltzmann's constant
Total free energy                 ...    -11.50732939 Eh 
Thermal Enthalpy correction       ...      0.00094421 Eh       0.59 kcal/mol
-----------------------------------------------------------------------
Total Enthalpy                    ...    -11.50638518 Eh


Note: Rotational entropy computed according to Herzberg 
Infrared and Raman Spectra, Chapter V,1, Van Nostrand Reinhold, 1945 
Point Group:  C3v, Symmetry Number:   3  
Rotational constants in cm-1:     4.911822     0.009671     0.009671 

Vibrational entropy computed according to the QRRHO of S. Grimme
Chem.Eur.J. 2012 18 9955


-------
ENTROPY
-------

The entropy contributions are T*S = T*(S(el)+S(vib)+S(rot)+S(trans))
     S(el)   - electronic entropy
     S(vib)  - vibrational entropy
     S(rot)  - rotational entropy
     S(trans)- translational entropy
The entropies will be listed as mutliplied by the temperature to get
units of energy

Electronic entropy                ...      0.00000000 Eh      0.00 kcal/mol
Vibrational entropy               ...      0.00389558 Eh      2.44 kcal/mol
Rotational entropy                ...      0.01210181 Eh      7.59 kcal/mol
Translational entropy             ...      0.02027183 Eh     12.72 kcal/mol
-----------------------------------------------------------------------
Final entropy term                ...      0.03626922 Eh     22.76 kcal/mol

In case the symmetry of your molecule has not been determined correctly
or in case you have a reason to use a different symmetry number we print 
out the resulting rotational entropy values for sn=1,12 :
 --------------------------------------------------------
|  sn= 1 | S(rot)=       0.01313910 Eh      8.24 kcal/mol|
|  sn= 2 | S(rot)=       0.01248464 Eh      7.83 kcal/mol|
|  sn= 3 | S(rot)=       0.01210181 Eh      7.59 kcal/mol|
|  sn= 4 | S(rot)=       0.01183019 Eh      7.42 kcal/mol|
|  sn= 5 | S(rot)=       0.01161950 Eh      7.29 kcal/mol|
|  sn= 6 | S(rot)=       0.01144736 Eh      7.18 kcal/mol|
|  sn= 7 | S(rot)=       0.01130181 Eh      7.09 kcal/mol|
|  sn= 8 | S(rot)=       0.01117573 Eh      7.01 kcal/mol|
|  sn= 9 | S(rot)=       0.01106452 Eh      6.94 kcal/mol|
|  sn=10 | S(rot)=       0.01096504 Eh      6.88 kcal/mol|
|  sn=11 | S(rot)=       0.01087505 Eh      6.82 kcal/mol|
|  sn=12 | S(rot)=       0.01079290 Eh      6.77 kcal/mol|
 --------------------------------------------------------


-------------------
GIBBS FREE ENERGY
-------------------

The Gibbs free energy is G = H - T*S

Total enthalpy                    ...    -11.50638518 Eh 
Total entropy correction          ...     -0.03626922 Eh    -22.76 kcal/mol
-----------------------------------------------------------------------
Final Gibbs free energy         ...    -11.54265440 Eh

For completeness - the Gibbs free energy minus the electronic energy
G-E(el)                           ...      0.00549383 Eh      3.45 kcal/mol


Total Time for Numerical Frequencies  :        30.115 sec

Timings for individual modules:

Sum of individual times         ...        3.383 sec (=   0.056 min)
Geometry relaxation             ...        1.852 sec (=   0.031 min)  54.8 %
XTB module                      ...        1.530 sec (=   0.026 min)  45.2 %
                             ****ORCA TERMINATED NORMALLY****
TOTAL RUN TIME: 0 days 0 hours 0 minutes 35 seconds 510 msec
