
                                 *****************
                                 * O   R   C   A *
                                 *****************

           --- An Ab Initio, DFT and Semiempirical electronic structure package ---

                  #######################################################
                  #                        -***-                        #
                  #          Department of theory and spectroscopy      #
                  #               Directorship: Frank Neese             #
                  #        Max Planck Institute fuer Kohlenforschung    #
                  #                Kaiser Wilhelm Platz 1               #
                  #                 D-45470 Muelheim/Ruhr               #
                  #                      Germany                        #
                  #                                                     #
                  #                  All rights reserved                #
                  #                        -***-                        #
                  #######################################################


                         Program Version 4.2.1 -  RELEASE  -


 With contributions from (in alphabetic order):
   Daniel Aravena         : Magnetic Suceptibility
   Michael Atanasov       : Ab Initio Ligand Field Theory (pilot matlab implementation)
   Alexander A. Auer      : GIAO ZORA, VPT2
   Ute Becker             : Parallelization
   Giovanni Bistoni       : ED, misc. LED, open-shell LED, HFLD
   Martin Brehm           : Molecular dynamics
   Dmytro Bykov           : SCF Hessian
   Vijay G. Chilkuri      : MRCI spin determinant printing, contributions to CSF-ICE
   Dipayan Datta          : RHF DLPNO-CCSD density
   Achintya Kumar Dutta   : EOM-CC, STEOM-CC
   Dmitry Ganyushin       : Spin-Orbit,Spin-Spin,Magnetic field MRCI
   Miquel Garcia          : C-PCM Hessian, Gaussian charge scheme
   Yang Guo               : DLPNO-NEVPT2, CIM, IAO-localization
   Andreas Hansen         : Spin unrestricted coupled pair/coupled cluster methods
   Benjamin Helmich-Paris : CASSCF linear response (MC-RPA)
   Lee Huntington         : MR-EOM, pCC
   Robert Izsak           : Overlap fitted RIJCOSX, COSX-SCS-MP3, EOM
   Christian Kollmar      : KDIIS, OOCD, Brueckner-CCSD(T), CCSD density
   Simone Kossmann        : Meta GGA functionals, TD-DFT gradient, OOMP2, MP2 Hessian
   Martin Krupicka        : AUTO-CI
   Lucas Lang             : DCDCAS
   Dagmar Lenk            : GEPOL surface, SMD
   Dimitrios Liakos       : Extrapolation schemes; Compound Job, initial MDCI parallelization
   Dimitrios Manganas     : Further ROCIS development; embedding schemes
   Dimitrios Pantazis     : SARC Basis sets
   Taras Petrenko         : DFT Hessian,TD-DFT gradient, ASA, ECA, R-Raman, ABS, FL, XAS/XES, NRVS
   Peter Pinski           : DLPNO-MP2, DLPNO-MP2 Gradient
   Christoph Reimann      : Effective Core Potentials
   Marius Retegan         : Local ZFS, SOC
   Christoph Riplinger    : Optimizer, TS searches, QM/MM, DLPNO-CCSD(T), (RO)-DLPNO pert. Triples
   Tobias Risthaus        : Range-separated hybrids, TD-DFT gradient, RPA, STAB
   Michael Roemelt        : Original ROCIS implementation
   Masaaki Saitow         : Open-shell DLPNO-CCSD energy and density
   Barbara Sandhoefer     : DKH picture change effects
   Avijit Sen             : IP-ROCIS
   Kantharuban Sivalingam : CASSCF convergence, NEVPT2, FIC-MRCI
   Bernardo de Souza      : ESD, SOC TD-DFT
   Georgi Stoychev        : AutoAux, RI-MP2 NMR
   Willem Van den Heuvel  : Paramagnetic NMR
   Boris Wezisla          : Elementary symmetry handling
   Frank Wennmohs         : Technical directorship


 We gratefully acknowledge several colleagues who have allowed us to
 interface, adapt or use parts of their codes:
   Stefan Grimme, W. Hujo, H. Kruse,             : VdW corrections, initial TS optimization,
                  C. Bannwarth                     DFT functionals, gCP, sTDA/sTD-DF
   Ed Valeev, F. Pavosevic, A. Kumar             : LibInt (2-el integral package), F12 methods
   Garnet Chan, S. Sharma, J. Yang, R. Olivares  : DMRG
   Ulf Ekstrom                                   : XCFun DFT Library
   Mihaly Kallay                                 : mrcc  (arbitrary order and MRCC methods)
   Andreas Klamt, Michael Diedenhofen            : otool_cosmo (COSMO solvation model)
   Jiri Pittner, Ondrej Demel                    : Mk-CCSD
   Frank Weinhold                                : gennbo (NPA and NBO analysis)
   Christopher J. Cramer and Donald G. Truhlar   : smd solvation model
   Lars Goerigk                                  : TD-DFT with DH, B97 family of functionals
   V. Asgeirsson, H. Jonsson                     : NEB implementation
   FAccTs GmbH                                   : IRC, NEB, NEB-TS, Multilevel, MM, QM/MM, CI optimization
   S Lehtola, MJT Oliveira, MAL Marques          : LibXC Library


 Your calculation uses the libint2 library for the computation of 2-el integrals
 For citations please refer to: http://libint.valeyev.net

 Your ORCA version has been built with support for libXC version: 4.2.3
 For citations please refer to: https://tddft.org/programs/libxc/

 This ORCA versions uses:
   CBLAS   interface :  Fast vector & matrix operations
   LAPACKE interface :  Fast linear algebra routines
   SCALAPACK package :  Parallel linear algebra routines




***************************************
The coordinates will be read from file: init.xyz
***************************************


Your calculation utilizes the semiempirical GFN2-xTB method
Please cite in your paper:
C. Bannwarth, Ehlert S., S. Grimme,  J. Chem. Theory Comput., 15, (2019), 1652.
   

----- Orbital basis set information -----
Your calculation utilizes the basis: def2-SVP
   F. Weigend and R. Ahlrichs, Phys. Chem. Chem. Phys. 7, 3297 (2005).

cite the ECPs for I  [Def2-ECP] as follows:
Ce-Yb(ecp-28): M. Dolg, H. Stoll, H.Preuss, J. Chem. Phys., 1989, 90, 1730-1734.
Y-Cd(ecp-28), Hf-Hg(ecp-46): D. Andrae,U. Haeussermann, M. Dolg, H. Stoll, H. Preuss, Theor. Chim. Acta, 1990, 77, 123-141.
In-Sb(ecp-28), Tl-Bi(ecp-46): B. Metz, H. Stoll, M. Dolg, J. Chem. Phys., 2000, 113, 2563-2569.
Te-Xe(ecp-28), Po-Rn(ecp-46): K. A. Peterson, D. Figgen, E. Goll, H. Stoll, M. Dolg, J. Chem. Phys., 2003, 119, 11113-11123.
Rb(ecp-28), Cs(ecp-46): T. Leininger, A. Nicklass, W. Kuechle, H. Stoll, M. Dolg, A. Bergner, Chem. Phys. Lett., 1996, 255, 274-280.
Sr(ecp-28), Ba(ecp-46): M. Kaupp, P. V. Schleyer, H. Stoll and H. Preuss, J. Chem. Phys., 1991, 94, 1360-1366.
La(ecp-46): M. Dolg, H. Stoll, A. Savin, H. Preuss, Theor. Chim. Acta, 1989, 75, 173-194.
Lu(ecp-28): X. Cao, M. Dolg, J. Chem. Phys., 2001, 115, 7348-7355.

ECP parameters for I  [Def2-ECP] have been obtained from:
TURBOMOLE (7.0.2)

================================================================================
                                        WARNINGS
                       Please study these warnings very carefully!
================================================================================


WARNING: The environment variable RSH_COMMAND is not set!
  ===> : All Displacements for the Numerical Hessian calculation
         will be started on localhost

WARNING: Geometry Optimization
  ===> : Switching off AutoStart
         For restart on a previous wavefunction, please use MOREAD

WARNING: Found dipole moment calculation with XTB calculation
  ===> : Switching off dipole moment calculation


INFO   : the flag for use of LIBINT has been found!

================================================================================
                                       INPUT FILE
================================================================================
NAME = optts+numfreq.inp
|  1> ! xTB2 OptTS NumFreq IRC
|  2> 
|  3> *xyzfile -1 1 init.xyz
|  4> 
|  5> %geom
|  6>  ts_mode
|  7>   {B 0 5}
|  8>  end
|  9> end
| 10> 
| 11> %pal
| 12>  nprocs 2
| 13> end
| 14> 
| 15>                          ****END OF INPUT****
================================================================================

                       *****************************
                       * Geometry Optimization Run *
                       *****************************

Geometry optimization settings:
Update method            Update   .... Bofill
Choice of coordinates    CoordSys .... Z-matrix Internals
Initial Hessian          InHess   .... Almoef's Model

Convergence Tolerances:
Energy Change            TolE     ....  5.0000e-06 Eh
Max. Gradient            TolMAXG  ....  3.0000e-04 Eh/bohr
RMS Gradient             TolRMSG  ....  1.0000e-04 Eh/bohr
Max. Displacement        TolMAXD  ....  4.0000e-03 bohr
RMS Displacement         TolRMSD  ....  2.0000e-03 bohr
Strict Convergence                ....  False
------------------------------------------------------------------------------
                        ORCA OPTIMIZATION COORDINATE SETUP
------------------------------------------------------------------------------

The optimization will be done in new redundant internal coordinates
Making redundant internal coordinates   ...  (new redundants) done
Following TS mode number                ...    internal coordinate number: 11
Evaluating the initial hessian          ...  (Almloef) done
Evaluating the coordinates              ...  done
Calculating the B-matrix                .... done
Calculating the G-matrix                .... done
Diagonalizing the G-matrix              .... done
The first mode is                       ....    8
The number of degrees of freedom        ....   12

    -----------------------------------------------------------------
                    Redundant Internal Coordinates


    -----------------------------------------------------------------
         Definition                    Initial Value    Approx d2E/dq
    -----------------------------------------------------------------
      1. B(H   1,C   0)                  1.0653         0.394258   
      2. B(H   2,C   0)                  1.0653         0.394267   
      3. B(H   3,C   0)                  1.0654         0.394217   
      4. B(I   4,H   1)                  2.8259         0.002058   
      5. B(I   4,H   2)                  2.8259         0.002058   
      6. B(I   4,C   0)                  2.6174         0.023118   
      7. B(I   4,H   3)                  2.8260         0.002057   
      8. B(I   5,H   3)                  2.8261         0.002057   
      9. B(I   5,H   2)                  2.8259         0.002058   
     10. B(I   5,H   1)                  2.8259         0.002058   
     11. B(I   5,C   0)                  2.6174         0.023118   
     12. A(H   1,C   0,H   3)          119.9893         0.299287   
     13. A(H   2,C   0,H   3)          119.9938         0.299288   
     14. A(H   1,C   0,I   5)           89.9978         0.227824   
     15. A(H   2,C   0,I   5)           89.9958         0.227825   
     16. A(H   3,C   0,I   5)           90.0065         0.227821   
     17. A(H   1,C   0,I   4)           89.9987         0.227824   
     18. A(H   2,C   0,I   4)           89.9976         0.227825   
     19. A(H   3,C   0,I   4)           90.0035         0.227821   
     20. A(H   1,C   0,H   2)          120.0169         0.299293   
    -----------------------------------------------------------------

Number of atoms                         .... 6
Number of degrees of freedom            .... 20

         *************************************************************
         *                GEOMETRY OPTIMIZATION CYCLE   1            *
         *************************************************************
      -----------------------------------------------------------      
     |                   =====================                   |     
     |                           x T B                           |     
     |                   =====================                   |     
     |                         S. Grimme                         |     
     |          Mulliken Center for Theoretical Chemistry        |     
     |                    University of Bonn                     |     
      -----------------------------------------------------------      

   * xtb version 6.4.0 (d4b70c2) compiled by 'ehlert@majestix' on 2021-02-01

   xtb is free software: you can redistribute it and/or modify it under
   the terms of the GNU Lesser General Public License as published by
   the Free Software Foundation, either version 3 of the License, or
   (at your option) any later version.
   
   xtb is distributed in the hope that it will be useful,
   but WITHOUT ANY WARRANTY; without even the implied warranty of
   MERCHANTABILITY or FITNESS FOR A PARTICULAR PURPOSE.  See the
   GNU Lesser General Public License for more details.
   
   Cite this work as:
   * C. Bannwarth, E. Caldeweyher, S. Ehlert, A. Hansen, P. Pracht,
     J. Seibert, S. Spicher, S. Grimme, WIREs Comput. Mol. Sci., 2020,
     e01493. DOI: 10.1002/wcms.1493
   
   for GFN2-xTB:
   * C. Bannwarth, S. Ehlert and S. Grimme., J. Chem. Theory Comput., 2019,
     15, 1652-1671. DOI: 10.1021/acs.jctc.8b01176
   for GFN1-xTB:
   * S. Grimme, C. Bannwarth, P. Shushkov, J. Chem. Theory Comput., 2017,
     13, 1989-2009. DOI: 10.1021/acs.jctc.7b00118
   for GFN0-xTB:
   * P. Pracht, E. Caldeweyher, S. Ehlert, S. Grimme, ChemRxiv, 2019, preprint.
     DOI: 10.26434/chemrxiv.8326202.v1
   for GFN-FF:
   * S. Spicher and S. Grimme, Angew. Chem. Int. Ed., 2020, 59, 15665-15673.
     DOI: 10.1002/anie.202004239
   
   for DFT-D4:
   * E. Caldeweyher, C. Bannwarth and S. Grimme, J. Chem. Phys., 2017,
     147, 034112. DOI: 10.1063/1.4993215
   * E. Caldeweyher, S. Ehlert, A. Hansen, H. Neugebauer, S. Spicher,
     C. Bannwarth and S. Grimme, J. Chem. Phys., 2019, 150, 154122.
     DOI: 10.1063/1.5090222
   * E. Caldeweyher, J.-M. Mewes, S. Ehlert and S. Grimme, Phys. Chem. Chem. Phys.
     2020, 22, 8499-8512. DOI: 10.1039/D0CP00502A
   
   for sTDA-xTB:
   * S. Grimme and C. Bannwarth, J. Chem. Phys., 2016, 145, 054103.
     DOI: 10.1063/1.4959605
   
   in the mass-spec context:
   * V. Asgeirsson, C. Bauer and S. Grimme, Chem. Sci., 2017, 8, 4879.
     DOI: 10.1039/c7sc00601b
   * J. Koopman and S. Grimme, ACS Omega 2019, 4, 12, 15120-15133.
     DOI: 10.1021/acsomega.9b02011
   
   for metadynamics refer to:
   * S. Grimme, J. Chem. Theory Comput., 2019, 155, 2847-2862
     DOI: 10.1021/acs.jctc.9b00143
   
   with help from (in alphabetical order)
   P. Atkinson, C. Bannwarth, F. Bohle, G. Brandenburg, E. Caldeweyher
   M. Checinski, S. Dohm, S. Ehlert, S. Ehrlich, I. Gerasimov, J. Koopman
   C. Lavinge, S. Lehtola, F. März, M. Müller, F. Musil, H. Neugebauer
   J. Pisarek, P. Pracht, J. Seibert, P. Shushkov, S. Spicher, M. Stahn
   T. Strunk, J. Stückrath, T. Rose, and J. Unsleber
   
 * started run on 2022/05/09 at 10:23:11.995     

           -------------------------------------------------
          |                Calculation Setup                |
           -------------------------------------------------

          program call               : /opt/orca/otool_xtb optts+numfreq_XTB.xyz --grad -c -1 -u 0 -P 2 --namespace optts+numfreq
          calculation namespace      : optts+numfreq
          coordinate file            : optts+numfreq_XTB.xyz
          omp threads                :                     2
          number of atoms            :                     6
          number of electrons        :                    22
          charge                     :                    -1
          spin                       :                   0.0
          first test random number   :      0.14258739916604

   ID    Z sym.   atoms
    1    6 C      1
    2    1 H      2-4
    3   53 I      5, 6

molecular fragmentation (1/2 indicates fragments):
111112
# atoms in fragment 1/2:     5     1
 fragment masses (1/2) :      141.94      126.90
CMA distance (Bohr)    :   9.369
constraining FC (au)   :  0.0500
########################################################################
[WARNING] Please study the warnings concerning your input carefully
-1- prog_main_parseArguments: Process number higher than OMP_NUM_THREADS, I hope you know what you are doing.
########################################################################

           -------------------------------------------------
          |                 G F N 2 - x T B                 |
           -------------------------------------------------

        Reference                      10.1021/acs.jctc.8b01176
      * Hamiltonian:
        H0-scaling (s, p, d)           1.850000    2.230000    2.230000
        zeta-weighting                 0.500000
      * Dispersion:
        s8                             2.700000
        a1                             0.520000
        a2                             5.000000
        s9                             5.000000
      * Repulsion:
        kExp                           1.500000    1.000000
        rExp                           1.000000
      * Coulomb:
        alpha                          2.000000
        third order                    shell-resolved
        anisotropic                    true
        a3                             3.000000
        a5                             4.000000
        cn-shift                       1.200000
        cn-exp                         4.000000
        max-rad                        5.000000


          ...................................................
          :                      SETUP                      :
          :.................................................:
          :  # basis functions                  27          :
          :  # atomic orbitals                  25          :
          :  # shells                           11          :
          :  # electrons                        22          :
          :  max. iterations                   250          :
          :  Hamiltonian                  GFN2-xTB          :
          :  restarted?                      false          :
          :  GBSA solvation                  false          :
          :  PC potential                    false          :
          :  electronic temp.          300.0000000     K    :
          :  accuracy                    1.0000000          :
          :  -> integral cutoff          0.2500000E+02      :
          :  -> integral neglect         0.1000000E-07      :
          :  -> SCF convergence          0.1000000E-05 Eh   :
          :  -> wf. convergence          0.1000000E-03 e    :
          :  Broyden damping             0.4000000          :
          ...................................................

 iter      E             dE          RMSdq      gap      omega  full diag
   1    -11.6025065 -0.116025E+02  0.103E+01    2.89       0.0  T
   2    -11.6068793 -0.437277E-02  0.614E+00    2.73       1.0  T
   3    -11.6012387  0.564054E-02  0.314E+00    3.26       1.0  T
   4    -11.6092581 -0.801935E-02  0.105E+00    2.95       1.0  T
   5    -11.6094107 -0.152638E-03  0.550E-01    2.88       1.0  T
   6    -11.6095208 -0.110084E-03  0.139E-01    2.90       1.0  T
   7    -11.6095301 -0.933342E-05  0.162E-02    2.90       2.5  T
   8    -11.6095302 -0.554060E-07  0.314E-03    2.91      13.0  T
   9    -11.6095302 -0.202546E-08  0.607E-04    2.91      67.3  T
  10    -11.6095302 -0.173268E-09  0.106E-04    2.91     384.0  T

   *** convergence criteria satisfied after 10 iterations ***

         #    Occupation            Energy/Eh            Energy/eV
      -------------------------------------------------------------
         1        2.0000           -0.5270869             -14.3428
       ...           ...                  ...                  ...
         5        2.0000           -0.3603657              -9.8060
         6        2.0000           -0.2893772              -7.8744
         7        2.0000           -0.2269556              -6.1758
         8        2.0000           -0.2269553              -6.1758
         9        2.0000           -0.2244824              -6.1085
        10        2.0000           -0.2244823              -6.1085
        11        2.0000           -0.2214097              -6.0249 (HOMO)
        12                         -0.1146423              -3.1196 (LUMO)
        13                          0.2401796               6.5356
        14                          0.2530255               6.8852
        15                          0.2530361               6.8855
        16                          0.2532976               6.8926
       ...                                ...                  ...
        25                          0.4613177              12.5531
      -------------------------------------------------------------
                  HL-Gap            0.1067674 Eh            2.9053 eV
             Fermi-level           -0.1680260 Eh           -4.5722 eV

 SCC (total)                   0 d,  0 h,  0 min,  0.015 sec
 SCC setup                      ...        0 min,  0.000 sec (  1.053%)
 Dispersion                     ...        0 min,  0.000 sec (  0.272%)
 classical contributions        ...        0 min,  0.000 sec (  0.114%)
 integral evaluation            ...        0 min,  0.002 sec ( 13.757%)
 iterations                     ...        0 min,  0.009 sec ( 59.557%)
 molecular gradient             ...        0 min,  0.002 sec ( 14.121%)
 printout                       ...        0 min,  0.002 sec ( 10.823%)

         :::::::::::::::::::::::::::::::::::::::::::::::::::::
         ::                     SUMMARY                     ::
         :::::::::::::::::::::::::::::::::::::::::::::::::::::
         :: total energy             -11.548149523552 Eh    ::
         :: gradient norm              0.000042301286 Eh/a0 ::
         :: HOMO-LUMO gap              2.905289451969 eV    ::
         ::.................................................::
         :: SCC energy               -11.609530202636 Eh    ::
         :: -> isotropic ES            0.119432081855 Eh    ::
         :: -> anisotropic ES         -0.002044447553 Eh    ::
         :: -> anisotropic XC          0.002505691473 Eh    ::
         :: -> dispersion             -0.003876097230 Eh    ::
         :: repulsion energy           0.061381706038 Eh    ::
         :: add. restraining           0.000000000000 Eh    ::
         :: total charge              -1.000000000000 e     ::
         :::::::::::::::::::::::::::::::::::::::::::::::::::::

           -------------------------------------------------
          |                Property Printout                |
           -------------------------------------------------

    * Orbital Energies and Occupations

         #    Occupation            Energy/Eh            Energy/eV
      -------------------------------------------------------------
         1        2.0000           -0.5270869             -14.3428
         2        2.0000           -0.5264300             -14.3249
         3        2.0000           -0.4577621             -12.4563
         4        2.0000           -0.3603869              -9.8066
         5        2.0000           -0.3603657              -9.8060
         6        2.0000           -0.2893772              -7.8744
         7        2.0000           -0.2269556              -6.1758
         8        2.0000           -0.2269553              -6.1758
         9        2.0000           -0.2244824              -6.1085
        10        2.0000           -0.2244823              -6.1085
        11        2.0000           -0.2214097              -6.0249 (HOMO)
        12                         -0.1146423              -3.1196 (LUMO)
        13                          0.2401796               6.5356
        14                          0.2530255               6.8852
        15                          0.2530361               6.8855
        16                          0.2532976               6.8926
        17                          0.2532980               6.8926
        18                          0.2637387               7.1767
        19                          0.2637387               7.1767
        20                          0.2705359               7.3617
        21                          0.2705389               7.3617
        22                          0.3497211               9.5164
       ...                                ...                  ...
        25                          0.4613177              12.5531
      -------------------------------------------------------------
                  HL-Gap            0.1067674 Eh            2.9053 eV
             Fermi-level           -0.1680260 Eh           -4.5722 eV

     #   Z          covCN         q      C6AA      α(0)
     1   6 C        4.147    -0.022    20.876     6.489
     2   1 H        0.929     0.055     2.252     2.347
     3   1 H        0.929     0.055     2.252     2.347
     4   1 H        0.929     0.055     2.253     2.347
     5  53 I        0.686    -0.572   415.272    35.184
     6  53 I        0.686    -0.572   415.272    35.184

 Mol. C6AA /au·bohr⁶  :       2475.543494
 Mol. C8AA /au·bohr⁸  :     185269.935074
 Mol. α(0) /au        :         83.897409


Wiberg/Mayer (AO) data.
largest (>0.10) Wiberg bond orders for each atom

 ---------------------------------------------------------------------------
     #   Z sym  total        # sym  WBO       # sym  WBO       # sym  WBO
 ---------------------------------------------------------------------------
     1   6 C    3.952 --     4 H    1.008     2 H    1.008     3 H    1.008
                             6 I    0.464     5 I    0.464
     2   1 H    0.997 --     1 C    1.008
     3   1 H    0.997 --     1 C    1.008
     4   1 H    0.997 --     1 C    1.008
     5  53 I    0.630 --     1 C    0.464     6 I    0.185
     6  53 I    0.630 --     1 C    0.464     5 I    0.185
 ---------------------------------------------------------------------------

Topologies differ in total number of bonds
Writing topology from bond orders to xtbtopo.mol

molecular dipole:
                 x           y           z       tot (Debye)
 q only:        0.000      -0.000      -0.000
   full:        0.000      -0.000      -0.000       0.001
molecular quadrupole (traceless):
                xx          xy          yy          xz          yz          zz
 q only:      -27.594      -5.573      13.425       0.212       0.028      14.168
  q+dip:      -41.023      -8.285      19.959       0.316       0.042      21.064
   full:      -38.086      -7.691      18.530       0.293       0.039      19.556


           -------------------------------------------------
          | TOTAL ENERGY              -11.548149523552 Eh   |
          | GRADIENT NORM               0.000042301286 Eh/α |
          | HOMO-LUMO GAP               2.905289451969 eV   |
           -------------------------------------------------

------------------------------------------------------------------------
 * finished run on 2022/05/09 at 10:23:12.034     
------------------------------------------------------------------------
 total:
 * wall-time:     0 d,  0 h,  0 min,  0.039 sec
 *  cpu-time:     0 d,  0 h,  0 min,  0.044 sec
 * ratio c/w:     1.135 speedup
 SCF:
 * wall-time:     0 d,  0 h,  0 min,  0.018 sec
 *  cpu-time:     0 d,  0 h,  0 min,  0.021 sec
 * ratio c/w:     1.180 speedup


-------------------------   --------------------
FINAL SINGLE POINT ENERGY       -11.548149523550
-------------------------   --------------------

------------------------------------------------------------------------------
                         ORCA GEOMETRY RELAXATION STEP
------------------------------------------------------------------------------

Reading the OPT-File                    .... done
Getting information on internals        .... done
Copying old internal coords+grads       .... done
Making the new internal coordinates     .... (new redundants).... done
Validating the new internal coordinates .... (new redundants).... done
Calculating the B-matrix                .... done
Calculating the G,G- and P matrices     .... done
Transforming gradient to internals      .... done
Projecting the internal gradient        .... done
Number of atoms                         ....   6
Number of internal coordinates          ....  20
Current Energy                          ....   -11.548149524 Eh
Current gradient norm                   ....     0.000042301 Eh/bohr
Maximum allowed component of the step   ....  0.300
Current trust radius                    ....  0.300
Evaluating the initial hessian          ....  (Almloef) done
Projecting the Hessian                  .... done
Diagonalizing the Hessian               .... done
Dimension of the hessian                ....  20
Lowest eigenvalues of the Hessian:
  0.007572051  0.007932376  0.050887957  0.050888775  0.052485910
Hessian has   0 negative eigenvalues
Taking P-RFO step
Fraction of internal coordinate  10 in mode   0:  0.349449179
 0.349449179 >  0.000000000 for   0
Fraction of internal coordinate  10 in mode   1:  0.372871102
Fraction of internal coordinate  10 in mode   2:  0.000039288
Fraction of internal coordinate  10 in mode   3:  0.000008700
Fraction of internal coordinate  10 in mode   4:  0.000000358
Fraction of internal coordinate  10 in mode   5:  0.000000156
Fraction of internal coordinate  10 in mode   6:  0.442013006
Fraction of internal coordinate  10 in mode   7:  0.000010489
Fraction of internal coordinate  10 in mode   8:  0.000039191
Fraction of internal coordinate  10 in mode   9:  0.165553859
Fraction of internal coordinate  10 in mode  10:  0.000214189
Fraction of internal coordinate  10 in mode  11:  0.000053489
Hessian mode following switched on. 
Following mode   0
Following mode   0 (highest occurence of internal coordinate  10)
Searching for lambda that maximizes along mode:   0
Mode following switched off!
TS mode is mode number   0 with eigenvalue   0.00757205 and components:
   1.   -0.00000007
   2.   -0.00000018
   3.    0.00000039
   4.   -0.35452145
   5.   -0.35452041
   6.   -0.34944212
   7.   -0.35452603
   8.    0.35453503
   9.    0.35452539
  10.    0.35452722
  11.    0.34944918
  12.   -0.00000004
  13.   -0.00000004
  14.    0.01655048
  15.    0.01654962
  16.    0.01655422
  17.   -0.01655080
  18.   -0.01655025
  19.   -0.01655327
  20.   -0.00000004

Lambda that maximizes along the TS mode:       0.00757205
Searching for lambda that minimizes along all other modes
In cycle   1: lambdaN =  -0.00000000   step =   0.00000000
Lambda that minimizes along all other modes:  -0.00000000
Calculated stepsize too large (   1.1246 >    0.3000). Scaled with    0.2668.
The final length of the internal step   ....       0.3000
Converting the step to cartesian space:
 Initial RMS(Int)=    0.0670820393
Transforming coordinates:
 Iter   0:  RMS(Cart)=    0.0295809217 RMS(Int)=    0.0602079356
 Iter   1:  RMS(Cart)=    0.0006985509 RMS(Int)=    0.0006838213
 Iter   2:  RMS(Cart)=    0.0000094193 RMS(Int)=    0.0000175330
 Iter   3:  RMS(Cart)=    0.0000006958 RMS(Int)=    0.0000006733
 Iter   4:  RMS(Cart)=    0.0000000096 RMS(Int)=    0.0000000175
done
Storing new coordinates                 .... done

                                .--------------------.
          ----------------------|Geometry convergence|-------------------------
          Item                value                   Tolerance       Converged
          ---------------------------------------------------------------------
          RMS gradient        0.0000068148            0.0001000000      YES
          MAX gradient        0.0000234463            0.0003000000      YES
          RMS step            0.0670820393            0.0020000000      NO
          MAX step            0.0800253328            0.0040000000      NO
          ........................................................
          Max(Bonds)      0.0423      Max(Angles)    4.59
          Max(Dihed)        0.00      Max(Improp)    0.00
          ---------------------------------------------------------------------

The optimization has not yet converged - more geometry cycles are needed


    ---------------------------------------------------------------------------
                         Redundant Internal Coordinates
                            (Angstroem and degrees)

        Definition                    Value    dE/dq     Step     New-Value  comp.(TS mode)
    ----------------------------------------------------------------------------
     1. B(H   1,C   0)                1.0653 -0.000001 -0.0016    1.0637   
     2. B(H   2,C   0)                1.0653 -0.000001 -0.0041    1.0612   
     3. B(H   3,C   0)                1.0654  0.000002  0.0086    1.0740   
     4. B(I   4,H   1)                2.8259 -0.000001 -0.0423    2.7836          0.35
     5. B(I   4,H   2)                2.8259 -0.000002 -0.0423    2.7835          0.35
     6. B(I   4,C   0)                2.6174  0.000000 -0.0423    2.5751          0.35
     7. B(I   4,H   3)                2.8260  0.000004 -0.0423    2.7837          0.35
     8. B(I   5,H   3)                2.8261  0.000006  0.0423    2.8684          0.35
     9. B(I   5,H   2)                2.8259 -0.000003  0.0423    2.8682          0.35
    10. B(I   5,H   1)                2.8259 -0.000002  0.0423    2.8682          0.35
    11. B(I   5,C   0)                2.6174  0.000000  0.0423    2.6598          0.35
    12. A(H   1,C   0,H   3)          119.99 -0.000015   -0.09    119.90   
    13. A(H   2,C   0,H   3)          119.99 -0.000009   -0.09    119.91   
    14. A(H   1,C   0,I   5)           90.00 -0.000001    4.59     94.58   
    15. A(H   2,C   0,I   5)           90.00 -0.000002    4.59     94.58   
    16. A(H   3,C   0,I   5)           90.01  0.000002    4.59     94.59   
    17. A(H   1,C   0,I   4)           90.00 -0.000000   -4.59     85.41   
    18. A(H   2,C   0,I   4)           90.00 -0.000001   -4.59     85.41   
    19. A(H   3,C   0,I   4)           90.00  0.000001   -4.59     85.42   
    20. A(H   1,C   0,H   2)          120.02  0.000023   -0.09    119.93   
    ----------------------------------------------------------------------------

         *************************************************************
         *                GEOMETRY OPTIMIZATION CYCLE   2            *
         *************************************************************
      -----------------------------------------------------------      
     |                   =====================                   |     
     |                           x T B                           |     
     |                   =====================                   |     
     |                         S. Grimme                         |     
     |          Mulliken Center for Theoretical Chemistry        |     
     |                    University of Bonn                     |     
      -----------------------------------------------------------      

   * xtb version 6.4.0 (d4b70c2) compiled by 'ehlert@majestix' on 2021-02-01

   xtb is free software: you can redistribute it and/or modify it under
   the terms of the GNU Lesser General Public License as published by
   the Free Software Foundation, either version 3 of the License, or
   (at your option) any later version.
   
   xtb is distributed in the hope that it will be useful,
   but WITHOUT ANY WARRANTY; without even the implied warranty of
   MERCHANTABILITY or FITNESS FOR A PARTICULAR PURPOSE.  See the
   GNU Lesser General Public License for more details.
   
   Cite this work as:
   * C. Bannwarth, E. Caldeweyher, S. Ehlert, A. Hansen, P. Pracht,
     J. Seibert, S. Spicher, S. Grimme, WIREs Comput. Mol. Sci., 2020,
     e01493. DOI: 10.1002/wcms.1493
   
   for GFN2-xTB:
   * C. Bannwarth, S. Ehlert and S. Grimme., J. Chem. Theory Comput., 2019,
     15, 1652-1671. DOI: 10.1021/acs.jctc.8b01176
   for GFN1-xTB:
   * S. Grimme, C. Bannwarth, P. Shushkov, J. Chem. Theory Comput., 2017,
     13, 1989-2009. DOI: 10.1021/acs.jctc.7b00118
   for GFN0-xTB:
   * P. Pracht, E. Caldeweyher, S. Ehlert, S. Grimme, ChemRxiv, 2019, preprint.
     DOI: 10.26434/chemrxiv.8326202.v1
   for GFN-FF:
   * S. Spicher and S. Grimme, Angew. Chem. Int. Ed., 2020, 59, 15665-15673.
     DOI: 10.1002/anie.202004239
   
   for DFT-D4:
   * E. Caldeweyher, C. Bannwarth and S. Grimme, J. Chem. Phys., 2017,
     147, 034112. DOI: 10.1063/1.4993215
   * E. Caldeweyher, S. Ehlert, A. Hansen, H. Neugebauer, S. Spicher,
     C. Bannwarth and S. Grimme, J. Chem. Phys., 2019, 150, 154122.
     DOI: 10.1063/1.5090222
   * E. Caldeweyher, J.-M. Mewes, S. Ehlert and S. Grimme, Phys. Chem. Chem. Phys.
     2020, 22, 8499-8512. DOI: 10.1039/D0CP00502A
   
   for sTDA-xTB:
   * S. Grimme and C. Bannwarth, J. Chem. Phys., 2016, 145, 054103.
     DOI: 10.1063/1.4959605
   
   in the mass-spec context:
   * V. Asgeirsson, C. Bauer and S. Grimme, Chem. Sci., 2017, 8, 4879.
     DOI: 10.1039/c7sc00601b
   * J. Koopman and S. Grimme, ACS Omega 2019, 4, 12, 15120-15133.
     DOI: 10.1021/acsomega.9b02011
   
   for metadynamics refer to:
   * S. Grimme, J. Chem. Theory Comput., 2019, 155, 2847-2862
     DOI: 10.1021/acs.jctc.9b00143
   
   with help from (in alphabetical order)
   P. Atkinson, C. Bannwarth, F. Bohle, G. Brandenburg, E. Caldeweyher
   M. Checinski, S. Dohm, S. Ehlert, S. Ehrlich, I. Gerasimov, J. Koopman
   C. Lavinge, S. Lehtola, F. März, M. Müller, F. Musil, H. Neugebauer
   J. Pisarek, P. Pracht, J. Seibert, P. Shushkov, S. Spicher, M. Stahn
   T. Strunk, J. Stückrath, T. Rose, and J. Unsleber
   
 * started run on 2022/05/09 at 10:23:12.088     

           -------------------------------------------------
          |                Calculation Setup                |
           -------------------------------------------------

          program call               : /opt/orca/otool_xtb optts+numfreq_XTB.xyz --grad -c -1 -u 0 -P 2 --namespace optts+numfreq
          calculation namespace      : optts+numfreq
          coordinate file            : optts+numfreq_XTB.xyz
          omp threads                :                     2
          number of atoms            :                     6
          number of electrons        :                    22
          charge                     :                    -1
          spin                       :                   0.0
          first test random number   :      0.56480990024695

   ID    Z sym.   atoms
    1    6 C      1
    2    1 H      2-4
    3   53 I      5, 6

molecular fragmentation (1/2 indicates fragments):
111112
# atoms in fragment 1/2:     5     1
 fragment masses (1/2) :      141.94      126.90
CMA distance (Bohr)    :   9.373
constraining FC (au)   :  0.0500
########################################################################
[WARNING] Please study the warnings concerning your input carefully
-1- prog_main_parseArguments: Process number higher than OMP_NUM_THREADS, I hope you know what you are doing.
########################################################################

           -------------------------------------------------
          |                 G F N 2 - x T B                 |
           -------------------------------------------------

        Reference                      10.1021/acs.jctc.8b01176
      * Hamiltonian:
        H0-scaling (s, p, d)           1.850000    2.230000    2.230000
        zeta-weighting                 0.500000
      * Dispersion:
        s8                             2.700000
        a1                             0.520000
        a2                             5.000000
        s9                             5.000000
      * Repulsion:
        kExp                           1.500000    1.000000
        rExp                           1.000000
      * Coulomb:
        alpha                          2.000000
        third order                    shell-resolved
        anisotropic                    true
        a3                             3.000000
        a5                             4.000000
        cn-shift                       1.200000
        cn-exp                         4.000000
        max-rad                        5.000000


          ...................................................
          :                      SETUP                      :
          :.................................................:
          :  # basis functions                  27          :
          :  # atomic orbitals                  25          :
          :  # shells                           11          :
          :  # electrons                        22          :
          :  max. iterations                   250          :
          :  Hamiltonian                  GFN2-xTB          :
          :  restarted?                      false          :
          :  GBSA solvation                  false          :
          :  PC potential                    false          :
          :  electronic temp.          300.0000000     K    :
          :  accuracy                    1.0000000          :
          :  -> integral cutoff          0.2500000E+02      :
          :  -> integral neglect         0.1000000E-07      :
          :  -> SCF convergence          0.1000000E-05 Eh   :
          :  -> wf. convergence          0.1000000E-03 e    :
          :  Broyden damping             0.4000000          :
          ...................................................

 iter      E             dE          RMSdq      gap      omega  full diag
   1    -11.6015036 -0.116015E+02  0.103E+01    2.88       0.0  T
   2    -11.6058584 -0.435480E-02  0.614E+00    2.73       1.0  T
   3    -11.6005176  0.534080E-02  0.309E+00    3.25       1.0  T
   4    -11.6082234 -0.770582E-02  0.105E+00    2.94       1.0  T
   5    -11.6083962 -0.172766E-03  0.495E-01    2.88       1.0  T
   6    -11.6084522 -0.559803E-04  0.257E-01    2.89       1.0  T
   7    -11.6084864 -0.342326E-04  0.229E-02    2.90       1.8  T
   8    -11.6084864 -0.159398E-07  0.101E-02    2.90       4.0  T
   9    -11.6084865 -0.296319E-07  0.234E-03    2.90      17.4  T
  10    -11.6084865 -0.122294E-08  0.153E-03    2.90      26.7  T
  11    -11.6084865 -0.756735E-09  0.355E-04    2.90     115.0  T
  12    -11.6084865 -0.423288E-10  0.312E-05    2.90    1309.5  T

   *** convergence criteria satisfied after 12 iterations ***

         #    Occupation            Energy/Eh            Energy/eV
      -------------------------------------------------------------
         1        2.0000           -0.5281358             -14.3713
       ...           ...                  ...                  ...
         5        2.0000           -0.3598951              -9.7932
         6        2.0000           -0.2893314              -7.8731
         7        2.0000           -0.2272270              -6.1832
         8        2.0000           -0.2272268              -6.1832
         9        2.0000           -0.2241964              -6.1007
        10        2.0000           -0.2241809              -6.1003
        11        2.0000           -0.2213200              -6.0224 (HOMO)
        12                         -0.1147531              -3.1226 (LUMO)
        13                          0.2391327               6.5071
        14                          0.2491201               6.7789
        15                          0.2496045               6.7921
        16                          0.2555272               6.9532
       ...                                ...                  ...
        25                          0.4663641              12.6904
      -------------------------------------------------------------
                  HL-Gap            0.1065669 Eh            2.8998 eV
             Fermi-level           -0.1680365 Eh           -4.5725 eV

 SCC (total)                   0 d,  0 h,  0 min,  0.008 sec
 SCC setup                      ...        0 min,  0.000 sec (  2.110%)
 Dispersion                     ...        0 min,  0.000 sec (  0.566%)
 classical contributions        ...        0 min,  0.000 sec (  0.252%)
 integral evaluation            ...        0 min,  0.001 sec ( 19.549%)
 iterations                     ...        0 min,  0.004 sec ( 52.775%)
 molecular gradient             ...        0 min,  0.002 sec ( 22.596%)
 printout                       ...        0 min,  0.000 sec (  1.528%)

         :::::::::::::::::::::::::::::::::::::::::::::::::::::
         ::                     SUMMARY                     ::
         :::::::::::::::::::::::::::::::::::::::::::::::::::::
         :: total energy             -11.547498602513 Eh    ::
         :: gradient norm              0.013541158152 Eh/a0 ::
         :: HOMO-LUMO gap              2.899834270760 eV    ::
         ::.................................................::
         :: SCC energy               -11.608486453523 Eh    ::
         :: -> isotropic ES            0.119399327934 Eh    ::
         :: -> anisotropic ES         -0.002012940513 Eh    ::
         :: -> anisotropic XC          0.002481445389 Eh    ::
         :: -> dispersion             -0.003876329159 Eh    ::
         :: repulsion energy           0.060988876011 Eh    ::
         :: add. restraining           0.000000000000 Eh    ::
         :: total charge              -1.000000000000 e     ::
         :::::::::::::::::::::::::::::::::::::::::::::::::::::

           -------------------------------------------------
          |                Property Printout                |
           -------------------------------------------------

    * Orbital Energies and Occupations

         #    Occupation            Energy/Eh            Energy/eV
      -------------------------------------------------------------
         1        2.0000           -0.5281358             -14.3713
         2        2.0000           -0.5254841             -14.2991
         3        2.0000           -0.4575920             -12.4517
         4        2.0000           -0.3602920              -9.8040
         5        2.0000           -0.3598951              -9.7932
         6        2.0000           -0.2893314              -7.8731
         7        2.0000           -0.2272270              -6.1832
         8        2.0000           -0.2272268              -6.1832
         9        2.0000           -0.2241964              -6.1007
        10        2.0000           -0.2241809              -6.1003
        11        2.0000           -0.2213200              -6.0224 (HOMO)
        12                         -0.1147531              -3.1226 (LUMO)
        13                          0.2391327               6.5071
        14                          0.2491201               6.7789
        15                          0.2496045               6.7921
        16                          0.2555272               6.9532
        17                          0.2557807               6.9601
        18                          0.2640241               7.1845
        19                          0.2640548               7.1853
        20                          0.2706399               7.3645
        21                          0.2709210               7.3721
        22                          0.3496687               9.5150
       ...                                ...                  ...
        25                          0.4663641              12.6904
      -------------------------------------------------------------
                  HL-Gap            0.1065669 Eh            2.8998 eV
             Fermi-level           -0.1680365 Eh           -4.5725 eV

     #   Z          covCN         q      C6AA      α(0)
     1   6 C        4.146    -0.022    20.883     6.490
     2   1 H        0.929     0.056     2.251     2.346
     3   1 H        0.930     0.056     2.249     2.345
     4   1 H        0.929     0.055     2.262     2.352
     5  53 I        0.705    -0.570   415.383    35.187
     6  53 I        0.668    -0.574   415.063    35.176

 Mol. C6AA /au·bohr⁶  :       2475.535361
 Mol. C8AA /au·bohr⁸  :     185258.360880
 Mol. α(0) /au        :         83.896834


Wiberg/Mayer (AO) data.
largest (>0.10) Wiberg bond orders for each atom

 ---------------------------------------------------------------------------
     #   Z sym  total        # sym  WBO       # sym  WBO       # sym  WBO
 ---------------------------------------------------------------------------
     1   6 C    3.951 --     3 H    1.008     2 H    1.008     4 H    1.008
                             6 I    0.466     5 I    0.461
     2   1 H    0.997 --     1 C    1.008
     3   1 H    0.997 --     1 C    1.008
     4   1 H    0.997 --     1 C    1.008
     5  53 I    0.628 --     1 C    0.461     6 I    0.186
     6  53 I    0.635 --     1 C    0.466     5 I    0.186
 ---------------------------------------------------------------------------

Topologies differ in total number of bonds
Writing topology from bond orders to xtbtopo.mol

molecular dipole:
                 x           y           z       tot (Debye)
 q only:        0.092       0.017       0.003
   full:        0.028       0.010       0.004       0.076
molecular quadrupole (traceless):
                xx          xy          yy          xz          yz          zz
 q only:      -27.577      -5.569      13.418       0.212       0.028      14.159
  q+dip:      -41.026      -8.286      19.974       0.315       0.051      21.052
   full:      -38.090      -7.692      18.540       0.293       0.044      19.550


           -------------------------------------------------
          | TOTAL ENERGY              -11.547498602513 Eh   |
          | GRADIENT NORM               0.013541158152 Eh/α |
          | HOMO-LUMO GAP               2.899834270760 eV   |
           -------------------------------------------------

------------------------------------------------------------------------
 * finished run on 2022/05/09 at 10:23:12.122     
------------------------------------------------------------------------
 total:
 * wall-time:     0 d,  0 h,  0 min,  0.034 sec
 *  cpu-time:     0 d,  0 h,  0 min,  0.037 sec
 * ratio c/w:     1.090 speedup
 SCF:
 * wall-time:     0 d,  0 h,  0 min,  0.008 sec
 *  cpu-time:     0 d,  0 h,  0 min,  0.015 sec
 * ratio c/w:     1.891 speedup


-------------------------   --------------------
FINAL SINGLE POINT ENERGY       -11.547498602510
-------------------------   --------------------

------------------------------------------------------------------------------
                         ORCA GEOMETRY RELAXATION STEP
------------------------------------------------------------------------------

Reading the OPT-File                    .... done
Getting information on internals        .... done
Copying old internal coords+grads       .... done
Making the new internal coordinates     .... (new redundants).... done
Validating the new internal coordinates .... (new redundants).... done
Calculating the B-matrix                .... done
Calculating the G,G- and P matrices     .... done
Transforming gradient to internals      .... done
Projecting the internal gradient        .... done
Number of atoms                         ....   6
Number of internal coordinates          ....  20
Current Energy                          ....   -11.547498603 Eh
Current gradient norm                   ....     0.013541158 Eh/bohr
Maximum allowed component of the step   ....  0.300
Current trust radius                    ....  0.300
Updating the Hessian (Bofill)          .... Diagonalizing the Hessian               .... done
Dimension of the hessian                ....  20
Lowest eigenvalues of the Hessian:
  0.007811605  0.016760805  0.050888651  0.050890034  0.052485921
Hessian has   0 negative eigenvalues
Taking P-RFO step
Searching for lambda that maximizes along the lowest mode
TS mode is mode number   0 with eigenvalue   0.00781161 and components:
   1.   -0.00389566
   2.   -0.00372620
   3.   -0.00487960
   4.   -0.30108044
   5.   -0.30116641
   6.   -0.35943356
   7.   -0.30086746
   8.   -0.38778673
   9.   -0.38801832
  10.   -0.38794257
  11.   -0.38149481
  12.    0.00163719
  13.    0.00148198
  14.   -0.01791361
  15.   -0.01802655
  16.   -0.01748042
  17.    0.01776783
  18.    0.01772329
  19.    0.01792950
  20.    0.00084267

Lambda that maximizes along the TS mode:       0.00781926
Searching for lambda that minimizes along all other modes
In cycle   1: lambdaN =  -0.00120669   step =   0.00120669
In cycle   2: lambdaN =  -0.00121213   step =   0.00000544
In cycle   3: lambdaN =  -0.00121213   step =   0.00000000
Lambda that minimizes along all other modes:  -0.00121213
Calculated stepsize too large (   1.1476 >    0.3000). Scaled with    0.2614.
The final length of the internal step   ....       0.3000
Converting the step to cartesian space:
 Initial RMS(Int)=    0.0670820393
Transforming coordinates:
 Iter   0:  RMS(Cart)=    0.0320503329 RMS(Int)=    0.0597834281
 Iter   1:  RMS(Cart)=    0.0006225807 RMS(Int)=    0.0006068213
 Iter   2:  RMS(Cart)=    0.0000093033 RMS(Int)=    0.0000131972
 Iter   3:  RMS(Cart)=    0.0000004383 RMS(Int)=    0.0000004393
 Iter   4:  RMS(Cart)=    0.0000000084 RMS(Int)=    0.0000000105
done
Storing new coordinates                 .... done

                                .--------------------.
          ----------------------|Geometry convergence|-------------------------
          Item                value                   Tolerance       Converged
          ---------------------------------------------------------------------
          Energy change       0.0006509210            0.0000050000      NO
          RMS gradient        0.0016889988            0.0001000000      NO
          MAX gradient        0.0051724287            0.0003000000      NO
          RMS step            0.0670820393            0.0020000000      NO
          MAX step            0.0784223009            0.0040000000      NO
          ........................................................
          Max(Bonds)      0.0415      Max(Angles)    4.49
          Max(Dihed)        0.00      Max(Improp)    0.00
          ---------------------------------------------------------------------

The optimization has not yet converged - more geometry cycles are needed


    ---------------------------------------------------------------------------
                         Redundant Internal Coordinates
                            (Angstroem and degrees)

        Definition                    Value    dE/dq     Step     New-Value  comp.(TS mode)
    ----------------------------------------------------------------------------
     1. B(H   1,C   0)                1.0639 -0.001055  0.0176    1.0815   
     2. B(H   2,C   0)                1.0615 -0.002620  0.0175    1.0790   
     3. B(H   3,C   0)                1.0735  0.005172  0.0195    1.0930   
     4. B(I   4,H   1)                2.7726 -0.001759  0.0415    2.8141          0.30
     5. B(I   4,H   2)                2.7724 -0.001829  0.0415    2.8139          0.30
     6. B(I   4,C   0)                2.6049 -0.000463  0.0415    2.6464          0.36
     7. B(I   4,H   3)                2.7735 -0.001494  0.0415    2.8150          0.30
     8. B(I   5,H   3)                2.8798  0.001877  0.0415    2.9213          0.39
     9. B(I   5,H   2)                2.8785  0.001397  0.0415    2.9200          0.39
    10. B(I   5,H   1)                2.8788  0.001496  0.0415    2.9203          0.39
    11. B(I   5,C   0)                2.6298 -0.000007  0.0415    2.6713          0.38
    12. A(H   1,C   0,H   3)          119.81  0.000092   -0.74    119.07   
    13. A(H   2,C   0,H   3)          119.82 -0.000008   -0.67    119.15   
    14. A(H   1,C   0,I   5)           92.46  0.001054    4.49     96.95   
    15. A(H   2,C   0,I   5)           92.50  0.001351    4.49     96.99   
    16. A(H   3,C   0,I   5)           92.29 -0.000126    4.49     96.78   
    17. A(H   1,C   0,I   4)           87.62 -0.000513   -4.49     83.13   
    18. A(H   2,C   0,I   4)           87.66 -0.000265   -4.49     83.16   
    19. A(H   3,C   0,I   4)           87.48 -0.001500   -4.49     82.99   
    20. A(H   1,C   0,H   2)          119.84 -0.000416   -0.36    119.48   
    ----------------------------------------------------------------------------

         *************************************************************
         *                GEOMETRY OPTIMIZATION CYCLE   3            *
         *************************************************************
      -----------------------------------------------------------      
     |                   =====================                   |     
     |                           x T B                           |     
     |                   =====================                   |     
     |                         S. Grimme                         |     
     |          Mulliken Center for Theoretical Chemistry        |     
     |                    University of Bonn                     |     
      -----------------------------------------------------------      

   * xtb version 6.4.0 (d4b70c2) compiled by 'ehlert@majestix' on 2021-02-01

   xtb is free software: you can redistribute it and/or modify it under
   the terms of the GNU Lesser General Public License as published by
   the Free Software Foundation, either version 3 of the License, or
   (at your option) any later version.
   
   xtb is distributed in the hope that it will be useful,
   but WITHOUT ANY WARRANTY; without even the implied warranty of
   MERCHANTABILITY or FITNESS FOR A PARTICULAR PURPOSE.  See the
   GNU Lesser General Public License for more details.
   
   Cite this work as:
   * C. Bannwarth, E. Caldeweyher, S. Ehlert, A. Hansen, P. Pracht,
     J. Seibert, S. Spicher, S. Grimme, WIREs Comput. Mol. Sci., 2020,
     e01493. DOI: 10.1002/wcms.1493
   
   for GFN2-xTB:
   * C. Bannwarth, S. Ehlert and S. Grimme., J. Chem. Theory Comput., 2019,
     15, 1652-1671. DOI: 10.1021/acs.jctc.8b01176
   for GFN1-xTB:
   * S. Grimme, C. Bannwarth, P. Shushkov, J. Chem. Theory Comput., 2017,
     13, 1989-2009. DOI: 10.1021/acs.jctc.7b00118
   for GFN0-xTB:
   * P. Pracht, E. Caldeweyher, S. Ehlert, S. Grimme, ChemRxiv, 2019, preprint.
     DOI: 10.26434/chemrxiv.8326202.v1
   for GFN-FF:
   * S. Spicher and S. Grimme, Angew. Chem. Int. Ed., 2020, 59, 15665-15673.
     DOI: 10.1002/anie.202004239
   
   for DFT-D4:
   * E. Caldeweyher, C. Bannwarth and S. Grimme, J. Chem. Phys., 2017,
     147, 034112. DOI: 10.1063/1.4993215
   * E. Caldeweyher, S. Ehlert, A. Hansen, H. Neugebauer, S. Spicher,
     C. Bannwarth and S. Grimme, J. Chem. Phys., 2019, 150, 154122.
     DOI: 10.1063/1.5090222
   * E. Caldeweyher, J.-M. Mewes, S. Ehlert and S. Grimme, Phys. Chem. Chem. Phys.
     2020, 22, 8499-8512. DOI: 10.1039/D0CP00502A
   
   for sTDA-xTB:
   * S. Grimme and C. Bannwarth, J. Chem. Phys., 2016, 145, 054103.
     DOI: 10.1063/1.4959605
   
   in the mass-spec context:
   * V. Asgeirsson, C. Bauer and S. Grimme, Chem. Sci., 2017, 8, 4879.
     DOI: 10.1039/c7sc00601b
   * J. Koopman and S. Grimme, ACS Omega 2019, 4, 12, 15120-15133.
     DOI: 10.1021/acsomega.9b02011
   
   for metadynamics refer to:
   * S. Grimme, J. Chem. Theory Comput., 2019, 155, 2847-2862
     DOI: 10.1021/acs.jctc.9b00143
   
   with help from (in alphabetical order)
   P. Atkinson, C. Bannwarth, F. Bohle, G. Brandenburg, E. Caldeweyher
   M. Checinski, S. Dohm, S. Ehlert, S. Ehrlich, I. Gerasimov, J. Koopman
   C. Lavinge, S. Lehtola, F. März, M. Müller, F. Musil, H. Neugebauer
   J. Pisarek, P. Pracht, J. Seibert, P. Shushkov, S. Spicher, M. Stahn
   T. Strunk, J. Stückrath, T. Rose, and J. Unsleber
   
 * started run on 2022/05/09 at 10:23:12.170     

           -------------------------------------------------
          |                Calculation Setup                |
           -------------------------------------------------

          program call               : /opt/orca/otool_xtb optts+numfreq_XTB.xyz --grad -c -1 -u 0 -P 2 --namespace optts+numfreq
          calculation namespace      : optts+numfreq
          coordinate file            : optts+numfreq_XTB.xyz
          omp threads                :                     2
          number of atoms            :                     6
          number of electrons        :                    22
          charge                     :                    -1
          spin                       :                   0.0
          first test random number   :      0.05000244278936

   ID    Z sym.   atoms
    1    6 C      1
    2    1 H      2-4
    3   53 I      5, 6

molecular fragmentation (1/2 indicates fragments):
111112
# atoms in fragment 1/2:     5     1
 fragment masses (1/2) :      141.94      126.90
CMA distance (Bohr)    :   9.510
constraining FC (au)   :  0.0500
########################################################################
[WARNING] Please study the warnings concerning your input carefully
-1- prog_main_parseArguments: Process number higher than OMP_NUM_THREADS, I hope you know what you are doing.
########################################################################

           -------------------------------------------------
          |                 G F N 2 - x T B                 |
           -------------------------------------------------

        Reference                      10.1021/acs.jctc.8b01176
      * Hamiltonian:
        H0-scaling (s, p, d)           1.850000    2.230000    2.230000
        zeta-weighting                 0.500000
      * Dispersion:
        s8                             2.700000
        a1                             0.520000
        a2                             5.000000
        s9                             5.000000
      * Repulsion:
        kExp                           1.500000    1.000000
        rExp                           1.000000
      * Coulomb:
        alpha                          2.000000
        third order                    shell-resolved
        anisotropic                    true
        a3                             3.000000
        a5                             4.000000
        cn-shift                       1.200000
        cn-exp                         4.000000
        max-rad                        5.000000


          ...................................................
          :                      SETUP                      :
          :.................................................:
          :  # basis functions                  27          :
          :  # atomic orbitals                  25          :
          :  # shells                           11          :
          :  # electrons                        22          :
          :  max. iterations                   250          :
          :  Hamiltonian                  GFN2-xTB          :
          :  restarted?                      false          :
          :  GBSA solvation                  false          :
          :  PC potential                    false          :
          :  electronic temp.          300.0000000     K    :
          :  accuracy                    1.0000000          :
          :  -> integral cutoff          0.2500000E+02      :
          :  -> integral neglect         0.1000000E-07      :
          :  -> SCF convergence          0.1000000E-05 Eh   :
          :  -> wf. convergence          0.1000000E-03 e    :
          :  Broyden damping             0.4000000          :
          ...................................................

 iter      E             dE          RMSdq      gap      omega  full diag
   1    -11.5929686 -0.115930E+02  0.983E+00    2.66       0.0  T
   2    -11.5971865 -0.421788E-02  0.584E+00    2.52       1.0  T
   3    -11.5900628  0.712364E-02  0.322E+00    3.07       1.0  T
   4    -11.5995105 -0.944772E-02  0.106E+00    2.75       1.0  T
   5    -11.5997496 -0.239086E-03  0.444E-01    2.67       1.0  T
   6    -11.5997458  0.379167E-05  0.373E-01    2.67       1.0  T
   7    -11.5998178 -0.719623E-04  0.554E-02    2.69       1.0  T
   8    -11.5998185 -0.672464E-06  0.120E-02    2.69       3.4  T
   9    -11.5998185 -0.537991E-07  0.354E-03    2.69      11.5  T
  10    -11.5998185 -0.168158E-07  0.330E-04    2.69     123.7  T
  11    -11.5998185  0.775735E-11  0.166E-04    2.69     246.3  T

   *** convergence criteria satisfied after 11 iterations ***

         #    Occupation            Energy/Eh            Energy/eV
      -------------------------------------------------------------
         1        2.0000           -0.5314785             -14.4623
       ...           ...                  ...                  ...
         5        2.0000           -0.3580944              -9.7442
         6        2.0000           -0.2867545              -7.8030
         7        2.0000           -0.2291473              -6.2354
         8        2.0000           -0.2291408              -6.2352
         9        2.0000           -0.2221244              -6.0443
        10        2.0000           -0.2221024              -6.0437
        11        2.0000           -0.2220285              -6.0417 (HOMO)
        12                         -0.1231293              -3.3505 (LUMO)
        13                          0.2194565               5.9717
        14                          0.2473383               6.7304
        15                          0.2488297               6.7710
        16                          0.2537123               6.9039
       ...                                ...                  ...
        25                          0.4378567              11.9147
      -------------------------------------------------------------
                  HL-Gap            0.0988993 Eh            2.6912 eV
             Fermi-level           -0.1725789 Eh           -4.6961 eV

 SCC (total)                   0 d,  0 h,  0 min,  0.009 sec
 SCC setup                      ...        0 min,  0.000 sec (  1.784%)
 Dispersion                     ...        0 min,  0.000 sec (  0.471%)
 classical contributions        ...        0 min,  0.000 sec (  0.213%)
 integral evaluation            ...        0 min,  0.001 sec ( 11.733%)
 iterations                     ...        0 min,  0.005 sec ( 56.047%)
 molecular gradient             ...        0 min,  0.002 sec ( 20.441%)
 printout                       ...        0 min,  0.001 sec (  7.695%)

         :::::::::::::::::::::::::::::::::::::::::::::::::::::
         ::                     SUMMARY                     ::
         :::::::::::::::::::::::::::::::::::::::::::::::::::::
         :: total energy             -11.546302111727 Eh    ::
         :: gradient norm              0.026144975556 Eh/a0 ::
         :: HOMO-LUMO gap              2.691186033911 eV    ::
         ::.................................................::
         :: SCC energy               -11.599818536667 Eh    ::
         :: -> isotropic ES            0.119612145264 Eh    ::
         :: -> anisotropic ES         -0.001608895845 Eh    ::
         :: -> anisotropic XC          0.003491040164 Eh    ::
         :: -> dispersion             -0.003809923814 Eh    ::
         :: repulsion energy           0.053517561849 Eh    ::
         :: add. restraining           0.000000000000 Eh    ::
         :: total charge              -1.000000000000 e     ::
         :::::::::::::::::::::::::::::::::::::::::::::::::::::

           -------------------------------------------------
          |                Property Printout                |
           -------------------------------------------------

    * Orbital Energies and Occupations

         #    Occupation            Energy/Eh            Energy/eV
      -------------------------------------------------------------
         1        2.0000           -0.5314785             -14.4623
         2        2.0000           -0.5213726             -14.1873
         3        2.0000           -0.4551173             -12.3844
         4        2.0000           -0.3588795              -9.7656
         5        2.0000           -0.3580944              -9.7442
         6        2.0000           -0.2867545              -7.8030
         7        2.0000           -0.2291473              -6.2354
         8        2.0000           -0.2291408              -6.2352
         9        2.0000           -0.2221244              -6.0443
        10        2.0000           -0.2221024              -6.0437
        11        2.0000           -0.2220285              -6.0417 (HOMO)
        12                         -0.1231293              -3.3505 (LUMO)
        13                          0.2194565               5.9717
        14                          0.2473383               6.7304
        15                          0.2488297               6.7710
        16                          0.2537123               6.9039
        17                          0.2539115               6.9093
        18                          0.2623587               7.1391
        19                          0.2628805               7.1533
        20                          0.2720145               7.4019
        21                          0.2720847               7.4038
        22                          0.3427071               9.3255
       ...                                ...                  ...
        25                          0.4378567              11.9147
      -------------------------------------------------------------
                  HL-Gap            0.0988993 Eh            2.6912 eV
             Fermi-level           -0.1725789 Eh           -4.6961 eV

     #   Z          covCN         q      C6AA      α(0)
     1   6 C        4.037    -0.027    20.970     6.505
     2   1 H        0.927     0.058     2.226     2.333
     3   1 H        0.927     0.058     2.223     2.332
     4   1 H        0.926     0.056     2.242     2.342
     5  53 I        0.609    -0.596   415.287    35.191
     6  53 I        0.656    -0.550   412.783    35.080

 Mol. C6AA /au·bohr⁶  :       2468.321539
 Mol. C8AA /au·bohr⁸  :     184749.836302
 Mol. α(0) /au        :         83.782818


Wiberg/Mayer (AO) data.
largest (>0.10) Wiberg bond orders for each atom

 ---------------------------------------------------------------------------
     #   Z sym  total        # sym  WBO       # sym  WBO       # sym  WBO
 ---------------------------------------------------------------------------
     1   6 C    3.947 --     3 H    1.005     2 H    1.005     4 H    1.005
                             6 I    0.503     5 I    0.429
     2   1 H    0.997 --     1 C    1.005
     3   1 H    0.997 --     1 C    1.005
     4   1 H    0.997 --     1 C    1.005
     5  53 I    0.412 --     1 C    0.429
     6  53 I    0.490 --     1 C    0.503
 ---------------------------------------------------------------------------

Topologies differ in total number of bonds
Writing topology from bond orders to xtbtopo.mol

molecular dipole:
                 x           y           z       tot (Debye)
 q only:       -0.148      -0.015       0.004
   full:       -0.157      -0.015       0.004       0.401
molecular quadrupole (traceless):
                xx          xy          yy          xz          yz          zz
 q only:      -28.435      -5.741      13.834       0.220       0.028      14.601
  q+dip:      -40.818      -8.242      19.867       0.315       0.047      20.951
   full:      -38.041      -7.680      18.512       0.294       0.042      19.529


           -------------------------------------------------
          | TOTAL ENERGY              -11.546302111727 Eh   |
          | GRADIENT NORM               0.026144975556 Eh/α |
          | HOMO-LUMO GAP               2.691186033911 eV   |
           -------------------------------------------------

------------------------------------------------------------------------
 * finished run on 2022/05/09 at 10:23:12.204     
------------------------------------------------------------------------
 total:
 * wall-time:     0 d,  0 h,  0 min,  0.034 sec
 *  cpu-time:     0 d,  0 h,  0 min,  0.041 sec
 * ratio c/w:     1.217 speedup
 SCF:
 * wall-time:     0 d,  0 h,  0 min,  0.009 sec
 *  cpu-time:     0 d,  0 h,  0 min,  0.016 sec
 * ratio c/w:     1.705 speedup


-------------------------   --------------------
FINAL SINGLE POINT ENERGY       -11.546302111730
-------------------------   --------------------

------------------------------------------------------------------------------
                         ORCA GEOMETRY RELAXATION STEP
------------------------------------------------------------------------------

Reading the OPT-File                    .... done
Getting information on internals        .... done
Copying old internal coords+grads       .... done
Making the new internal coordinates     .... (new redundants).... done
Validating the new internal coordinates .... (new redundants).... done
Calculating the B-matrix                .... done
Calculating the G,G- and P matrices     .... done
Transforming gradient to internals      .... done
Projecting the internal gradient        .... done
Number of atoms                         ....   6
Number of internal coordinates          ....  20
Current Energy                          ....   -11.546302112 Eh
Current gradient norm                   ....     0.026144976 Eh/bohr
Maximum allowed component of the step   ....  0.300
Current trust radius                    ....  0.300
Updating the Hessian (Bofill)          .... Diagonalizing the Hessian               .... done
Dimension of the hessian                ....  20
Lowest eigenvalues of the Hessian:
  0.011382341  0.016538869  0.050888667  0.050890519  0.052485935
Hessian has   0 negative eigenvalues
Taking P-RFO step
Searching for lambda that maximizes along the lowest mode
TS mode is mode number   0 with eigenvalue   0.01138234 and components:
   1.   -0.02348594
   2.   -0.02098721
   3.   -0.03617933
   4.   -0.12691308
   5.   -0.12624748
   6.   -0.53642190
   7.   -0.12985685
   8.   -0.38213190
   9.   -0.37575865
  10.   -0.37687143
  11.   -0.00269660
  12.    0.03966140
  13.    0.03589593
  14.   -0.19558752
  15.   -0.19588049
  16.   -0.19398650
  17.    0.19547245
  18.    0.19577258
  19.    0.19427359
  20.    0.01972652

Lambda that maximizes along the TS mode:       0.01316651
Searching for lambda that minimizes along all other modes
In cycle   1: lambdaN =  -0.00164331   step =   0.00164331
In cycle   2: lambdaN =  -0.00164929   step =   0.00000598
In cycle   3: lambdaN =  -0.00164929   step =   0.00000000
Lambda that minimizes along all other modes:  -0.00164929
Calculated stepsize too large (   1.0955 >    0.3000). Scaled with    0.2738.
The final length of the internal step   ....       0.3000
Converting the step to cartesian space:
 Initial RMS(Int)=    0.0670820393
Transforming coordinates:
 Iter   0:  RMS(Cart)=    0.0327505483 RMS(Int)=    0.0614611380
 Iter   1:  RMS(Cart)=    0.0010346591 RMS(Int)=    0.0009951513
 Iter   2:  RMS(Cart)=    0.0000136435 RMS(Int)=    0.0000257561
 Iter   3:  RMS(Cart)=    0.0000012805 RMS(Int)=    0.0000012414
 Iter   4:  RMS(Cart)=    0.0000000174 RMS(Int)=    0.0000000315
done
Storing new coordinates                 .... done

                                .--------------------.
          ----------------------|Geometry convergence|-------------------------
          Item                value                   Tolerance       Converged
          ---------------------------------------------------------------------
          Energy change       0.0011964908            0.0000050000      NO
          RMS gradient        0.0043867574            0.0001000000      NO
          MAX gradient        0.0145645023            0.0003000000      NO
          RMS step            0.0670820393            0.0020000000      NO
          MAX step            0.0821512035            0.0040000000      NO
          ........................................................
          Max(Bonds)      0.0435      Max(Angles)    4.71
          Max(Dihed)        0.00      Max(Improp)    0.00
          ---------------------------------------------------------------------

The optimization has not yet converged - more geometry cycles are needed


    ---------------------------------------------------------------------------
                         Redundant Internal Coordinates
                            (Angstroem and degrees)

        Definition                    Value    dE/dq     Step     New-Value  comp.(TS mode)
    ----------------------------------------------------------------------------
     1. B(H   1,C   0)                1.0803  0.008105  0.0062    1.0865   
     2. B(H   2,C   0)                1.0778  0.006643  0.0058    1.0836   
     3. B(H   3,C   0)                1.0917  0.014565  0.0087    1.1004   
     4. B(I   4,H   1)                2.8036 -0.000089  0.0435    2.8470   
     5. B(I   4,H   2)                2.8034 -0.000136  0.0435    2.8468   
     6. B(I   4,C   0)                2.6756 -0.002377  0.0435    2.7191          0.54
     7. B(I   4,H   3)                2.8045  0.000105  0.0435    2.8480   
     8. B(I   5,H   3)                2.9333  0.004483  0.0435    2.9768          0.38
     9. B(I   5,H   2)                2.9318  0.003992  0.0435    2.9753          0.38
    10. B(I   5,H   1)                2.9321  0.004087  0.0435    2.9755          0.38
    11. B(I   5,C   0)                2.6384 -0.001009 -0.0004    2.6380   
    12. A(H   1,C   0,H   3)          119.19 -0.000128   -1.66    117.52   
    13. A(H   2,C   0,H   3)          119.26 -0.000118   -1.51    117.76   
    14. A(H   1,C   0,I   5)           94.72  0.000786    4.71     99.42   
    15. A(H   2,C   0,I   5)           94.77  0.001090    4.71     99.47   
    16. A(H   3,C   0,I   5)           94.49 -0.000555    4.71     99.20   
    17. A(H   1,C   0,I   4)           85.38 -0.000203   -4.71     80.67   
    18. A(H   2,C   0,I   4)           85.41  0.000007   -4.71     80.70   
    19. A(H   3,C   0,I   4)           85.23 -0.001131   -4.71     80.53   
    20. A(H   1,C   0,H   2)          119.59 -0.000123   -0.82    118.77   
    ----------------------------------------------------------------------------

         *************************************************************
         *                GEOMETRY OPTIMIZATION CYCLE   4            *
         *************************************************************
      -----------------------------------------------------------      
     |                   =====================                   |     
     |                           x T B                           |     
     |                   =====================                   |     
     |                         S. Grimme                         |     
     |          Mulliken Center for Theoretical Chemistry        |     
     |                    University of Bonn                     |     
      -----------------------------------------------------------      

   * xtb version 6.4.0 (d4b70c2) compiled by 'ehlert@majestix' on 2021-02-01

   xtb is free software: you can redistribute it and/or modify it under
   the terms of the GNU Lesser General Public License as published by
   the Free Software Foundation, either version 3 of the License, or
   (at your option) any later version.
   
   xtb is distributed in the hope that it will be useful,
   but WITHOUT ANY WARRANTY; without even the implied warranty of
   MERCHANTABILITY or FITNESS FOR A PARTICULAR PURPOSE.  See the
   GNU Lesser General Public License for more details.
   
   Cite this work as:
   * C. Bannwarth, E. Caldeweyher, S. Ehlert, A. Hansen, P. Pracht,
     J. Seibert, S. Spicher, S. Grimme, WIREs Comput. Mol. Sci., 2020,
     e01493. DOI: 10.1002/wcms.1493
   
[...]
             <<<Displacing   1/coordinate 1 (+)>>>
             <<<Displacing   1/coordinate 2 (+)>>>
             <<<Displacing   1/coordinate 1 (-)>>>
             <<<Displacing   1/coordinate 2 (-)>>>
             <<<Displacing   1/coordinate 3 (+)>>>
             <<<Displacing   2/coordinate 1 (+)>>>
             <<<Displacing   1/coordinate 3 (-)>>>
             <<<Displacing   2/coordinate 1 (-)>>>
             <<<Displacing   2/coordinate 2 (+)>>>
             <<<Displacing   2/coordinate 2 (-)>>>
             <<<Displacing   2/coordinate 3 (+)>>>
             <<<Displacing   2/coordinate 3 (-)>>>
             <<<Displacing   3/coordinate 1 (+)>>>
             <<<Displacing   3/coordinate 1 (-)>>>
             <<<Displacing   3/coordinate 2 (+)>>>
             <<<Displacing   3/coordinate 2 (-)>>>
             <<<Displacing   3/coordinate 3 (+)>>>
             <<<Displacing   3/coordinate 3 (-)>>>
             <<<Displacing   4/coordinate 1 (+)>>>
             <<<Displacing   4/coordinate 1 (-)>>>
             <<<Displacing   4/coordinate 2 (+)>>>
             <<<Displacing   4/coordinate 2 (-)>>>
             <<<Displacing   4/coordinate 3 (+)>>>
             <<<Displacing   4/coordinate 3 (-)>>>
             <<<Displacing   5/coordinate 1 (+)>>>
             <<<Displacing   5/coordinate 2 (+)>>>
             <<<Displacing   5/coordinate 2 (-)>>>
             <<<Displacing   5/coordinate 1 (-)>>>
             <<<Displacing   6/coordinate 1 (+)>>>
             <<<Displacing   5/coordinate 3 (+)>>>
             <<<Displacing   6/coordinate 1 (-)>>>
             <<<Displacing   5/coordinate 3 (-)>>>
             <<<Displacing   6/coordinate 3 (+)>>>
             <<<Displacing   6/coordinate 2 (+)>>>
             <<<Displacing   6/coordinate 3 (-)>>>
             <<<Displacing   6/coordinate 2 (-)>>>

-----------------------
VIBRATIONAL FREQUENCIES
-----------------------

Scaling factor for frequencies =  1.000000000 (already applied!)

   0:         0.00 cm**-1
   1:         0.00 cm**-1
   2:         0.00 cm**-1
   3:         0.00 cm**-1
   4:         0.00 cm**-1
   5:         0.00 cm**-1
   6:      -299.01 cm**-1 ***imaginary mode***
   7:       117.71 cm**-1
   8:       168.75 cm**-1
   9:       168.81 cm**-1
  10:       973.32 cm**-1
  11:      1006.33 cm**-1
  12:      1006.69 cm**-1
  13:      1337.07 cm**-1
  14:      1339.01 cm**-1
  15:      3161.79 cm**-1
  16:      3248.28 cm**-1
  17:      3249.92 cm**-1


------------
NORMAL MODES
------------

These modes are the cartesian displacements weighted by the diagonal matrix
M(i,i)=1/sqrt(m[i]) where m[i] is the mass of the displaced atom
Thus, these vectors are normalized but *not* orthogonal

                  0          1          2          3          4          5    
      0       0.000000   0.000000   0.000000   0.000000   0.000000   0.000000
      1       0.000000   0.000000   0.000000   0.000000   0.000000   0.000000
      2       0.000000   0.000000   0.000000   0.000000   0.000000   0.000000
      3       0.000000   0.000000   0.000000   0.000000   0.000000   0.000000
      4       0.000000   0.000000   0.000000   0.000000   0.000000   0.000000
      5       0.000000   0.000000   0.000000   0.000000   0.000000   0.000000
      6       0.000000   0.000000   0.000000   0.000000   0.000000   0.000000
      7       0.000000   0.000000   0.000000   0.000000   0.000000   0.000000
      8       0.000000   0.000000   0.000000   0.000000   0.000000   0.000000
      9       0.000000   0.000000   0.000000   0.000000   0.000000   0.000000
     10       0.000000   0.000000   0.000000   0.000000   0.000000   0.000000
     11       0.000000   0.000000   0.000000   0.000000   0.000000   0.000000
     12       0.000000   0.000000   0.000000   0.000000   0.000000   0.000000
     13       0.000000   0.000000   0.000000   0.000000   0.000000   0.000000
     14       0.000000   0.000000   0.000000   0.000000   0.000000   0.000000
     15       0.000000   0.000000   0.000000   0.000000   0.000000   0.000000
     16       0.000000   0.000000   0.000000   0.000000   0.000000   0.000000
     17       0.000000   0.000000   0.000000   0.000000   0.000000   0.000000
                  6          7          8          9         10         11    
      0      -0.987315   0.000166  -0.020998  -0.061323   0.011187   0.000088
      1      -0.131451  -0.000402   0.139064   0.466427   0.001508  -0.000015
      2       0.005190  -0.000466  -0.470405   0.140627  -0.000047   0.000078
      3      -0.034011  -0.000408  -0.020763  -0.062754  -0.567526   0.668106
      4      -0.004144   0.003857   0.137933   0.477530  -0.075815   0.089049
      5       0.000226  -0.003866  -0.480697   0.148704   0.002930  -0.003669
      6      -0.034531   0.000001  -0.021822  -0.063292  -0.564035  -0.730103
      7      -0.004320   0.000327   0.144325   0.481015  -0.075290  -0.097190
      8       0.000503   0.004957  -0.477266   0.141345   0.002779   0.003578
      9      -0.031322   0.001306  -0.021778  -0.062550  -0.584859   0.055833
     10      -0.004074  -0.005383   0.144645   0.473071  -0.077901   0.007533
     11       0.000252  -0.002530  -0.486025   0.141588   0.003026  -0.000517
     12       0.047130   0.700860   0.001235   0.003675   0.006287  -0.000070
     13       0.006266   0.093403  -0.008279  -0.027759   0.000863   0.000603
     14      -0.000253  -0.003618   0.028000  -0.008370  -0.000017  -0.001885
     15       0.047112  -0.700883   0.001263   0.003627   0.006288   0.000111
     16       0.006275  -0.093355  -0.008274  -0.027760   0.000813  -0.000597
     17      -0.000246   0.003674   0.027994  -0.008368  -0.000048   0.001882
                 12         13         14         15         16         17    
      0      -0.000348   0.004277   0.012240  -0.000086  -0.004495   0.012241
      1      -0.000142  -0.028473  -0.092851   0.000461   0.030118  -0.092928
      2      -0.000030   0.093777  -0.028748   0.000257  -0.093619  -0.030479
      3       0.462469   0.040554  -0.048319   0.062202   0.074125  -0.045942
      4       0.061901  -0.319192   0.380861  -0.451826  -0.539280   0.332049
      5      -0.002196  -0.337046   0.543802   0.356555   0.397817  -0.302036
      6       0.362121  -0.045594  -0.096497   0.007983  -0.012336  -0.000377
      7       0.048618   0.344647   0.716910  -0.080935   0.118655   0.015743
      8      -0.001841   0.002019  -0.126829  -0.573947   0.718933   0.354732
      9      -0.798398  -0.044290   0.003398  -0.069145  -0.008861  -0.097837
     10      -0.106412   0.303169  -0.026001   0.527337   0.065973   0.746502
     11       0.004116  -0.747336  -0.085130   0.214376  -0.014320   0.306222
     12      -0.000331  -0.000006  -0.000017   0.000053   0.000003  -0.000006
     13       0.001860   0.000042   0.000137   0.000007  -0.000017   0.000052
     14       0.000608  -0.000139   0.000042  -0.000000   0.000052   0.000017
     15       0.000156  -0.000006  -0.000018  -0.000053   0.000002  -0.000007
     16      -0.001879   0.000042   0.000138  -0.000007  -0.000017   0.000052
     17      -0.000606  -0.000140   0.000043   0.000000   0.000052   0.000017


-----------
IR SPECTRUM  
-----------

 Mode    freq (cm**-1)   T**2         TX         TY         TZ
-------------------------------------------------------------------
   7:       117.71    0.000000  (  0.000000   0.000000   0.000000)
   8:       168.75    0.000000  (  0.000000   0.000000   0.000000)
   9:       168.81    0.000000  (  0.000000   0.000000   0.000000)
  10:       973.32    0.000000  (  0.000000   0.000000   0.000000)
  11:      1006.33    0.000000  (  0.000000   0.000000   0.000000)
  12:      1006.69    0.000000  (  0.000000   0.000000   0.000000)
  13:      1337.07    0.000000  (  0.000000   0.000000   0.000000)
  14:      1339.01    0.000000  (  0.000000   0.000000   0.000000)
  15:      3161.79    0.000000  (  0.000000   0.000000   0.000000)
  16:      3248.28    0.000000  (  0.000000   0.000000   0.000000)
  17:      3249.92    0.000000  (  0.000000   0.000000   0.000000)

The first frequency considered to be a vibration is 7
The total number of vibrations considered is 11


--------------------------
THERMOCHEMISTRY AT 298.15K
--------------------------

Temperature         ... 298.15 K
Pressure            ... 1.00 atm
Total Mass          ... 268.84 AMU

Throughout the following assumptions are being made:
  (1) The electronic state is orbitally nondegenerate
  (2) There are no thermally accessible electronically excited states
  (3) Hindered rotations indicated by low frequency modes are not
      treated as such but are treated as vibrations and this may
      cause some error
  (4) All equations used are the standard statistical mechanics
      equations for an ideal gas
  (5) All vibrations are strictly harmonic

freq.     117.71  E(vib)   ...       0.44 
freq.     168.75  E(vib)   ...       0.38 
freq.     168.81  E(vib)   ...       0.38 
freq.     973.32  E(vib)   ...       0.03 
freq.    1006.33  E(vib)   ...       0.02 
freq.    1006.69  E(vib)   ...       0.02 
freq.    1337.07  E(vib)   ...       0.01 
freq.    1339.01  E(vib)   ...       0.01 
freq.    3161.79  E(vib)   ...       0.00 
freq.    3248.28  E(vib)   ...       0.00 
freq.    3249.92  E(vib)   ...       0.00 

------------
INNER ENERGY
------------

The inner energy is: U= E(el) + E(ZPE) + E(vib) + E(rot) + E(trans)
    E(el)   - is the total energy from the electronic structure calculation
              = E(kin-el) + E(nuc-el) + E(el-el) + E(nuc-nuc)
    E(ZPE)  - the the zero temperature vibrational energy from the frequency calculation
    E(vib)  - the the finite temperature correction to E(ZPE) due to population
              of excited vibrational states
    E(rot)  - is the rotational thermal energy
    E(trans)- is the translational thermal energy

Summary of contributions to the inner energy U:
Electronic energy                ...    -11.54814925 Eh
Zero point energy                ...      0.03594422 Eh      22.56 kcal/mol
Thermal vibrational correction   ...      0.00205581 Eh       1.29 kcal/mol
Thermal rotational correction    ...      0.00141627 Eh       0.89 kcal/mol
Thermal translational correction ...      0.00141627 Eh       0.89 kcal/mol
-----------------------------------------------------------------------
Total thermal energy                    -11.50731667 Eh


Summary of corrections to the electronic energy:
(perhaps to be used in another calculation)
Total thermal correction                  0.00488836 Eh       3.07 kcal/mol
Non-thermal (ZPE) correction              0.03594422 Eh      22.56 kcal/mol
-----------------------------------------------------------------------
Total correction                          0.04083258 Eh      25.62 kcal/mol


--------
ENTHALPY
--------

The enthalpy is H = U + kB*T
                kB is Boltzmann's constant
Total free energy                 ...    -11.50731667 Eh 
Thermal Enthalpy correction       ...      0.00094421 Eh       0.59 kcal/mol
-----------------------------------------------------------------------
Total Enthalpy                    ...    -11.50637246 Eh


Note: Only C1 symmetry has been detected, increase convergence thresholds 
      if your molecule has a higher symmetry. Symmetry factor of 1.0 is   
      used for the rotational entropy correction. 
 

Note: Rotational entropy computed according to Herzberg 
Infrared and Raman Spectra, Chapter V,1, Van Nostrand Reinhold, 1945 
Point Group:  C1, Symmetry Number:   1  
Rotational constants in cm-1:     4.911802     0.009686     0.009686 

Vibrational entropy computed according to the QRRHO of S. Grimme
Chem.Eur.J. 2012 18 9955


-------
ENTROPY
-------

The entropy contributions are T*S = T*(S(el)+S(vib)+S(rot)+S(trans))
     S(el)   - electronic entropy
     S(vib)  - vibrational entropy
     S(rot)  - rotational entropy
     S(trans)- translational entropy
The entropies will be listed as mutliplied by the temperature to get
units of energy

Electronic entropy                ...      0.00000000 Eh      0.00 kcal/mol
Vibrational entropy               ...      0.00389212 Eh      2.44 kcal/mol
Rotational entropy                ...      0.01313765 Eh      8.24 kcal/mol
Translational entropy             ...      0.02027183 Eh     12.72 kcal/mol
-----------------------------------------------------------------------
Final entropy term                ...      0.03730161 Eh     23.41 kcal/mol

In case the symmetry of your molecule has not been determined correctly
or in case you have a reason to use a different symmetry number we print 
out the resulting rotational entropy values for sn=1,12 :
 --------------------------------------------------------
|  sn= 1 | S(rot)=       0.01313765 Eh      8.24 kcal/mol|
|  sn= 2 | S(rot)=       0.01248320 Eh      7.83 kcal/mol|
|  sn= 3 | S(rot)=       0.01210036 Eh      7.59 kcal/mol|
|  sn= 4 | S(rot)=       0.01182874 Eh      7.42 kcal/mol|
|  sn= 5 | S(rot)=       0.01161805 Eh      7.29 kcal/mol|
|  sn= 6 | S(rot)=       0.01144591 Eh      7.18 kcal/mol|
|  sn= 7 | S(rot)=       0.01130036 Eh      7.09 kcal/mol|
|  sn= 8 | S(rot)=       0.01117428 Eh      7.01 kcal/mol|
|  sn= 9 | S(rot)=       0.01106307 Eh      6.94 kcal/mol|
|  sn=10 | S(rot)=       0.01096360 Eh      6.88 kcal/mol|
|  sn=11 | S(rot)=       0.01087360 Eh      6.82 kcal/mol|
|  sn=12 | S(rot)=       0.01079145 Eh      6.77 kcal/mol|
 --------------------------------------------------------


-------------------
GIBBS FREE ENERGY
-------------------

The Gibbs free energy is G = H - T*S

Total enthalpy                    ...    -11.50637246 Eh 
Total entropy correction          ...     -0.03730161 Eh    -23.41 kcal/mol
-----------------------------------------------------------------------
Final Gibbs free energy         ...    -11.54367407 Eh

For completeness - the Gibbs free energy minus the electronic energy
G-E(el)                           ...      0.00447518 Eh      2.81 kcal/mol


Total Time for Numerical Frequencies  :        29.186 sec



------------------------------------------------------------------------------- 
                    Intrinsic Reaction Coordinate Calculation                  
------------------------------------------------------------------------------- 

System:
Nr. of atoms                        .... 6
Algorithm: SD (steepest descent step) plus correction
Settings:
Max. no of cycles        MaxIter    .... 20
Direction                           .... Forward and backward
Initial displacement Hessian type   .... Read
Hessian Filename                    .... optts+numfreq.hess
Following Hessian mode              .... 0
Initial displacement type           .... Energy
  Initial displacement energy change.... 2.000 mEh
Coordinate system following type    .... Cartesian
Length of steepest descent step     .... 0.150 bohr
Do parabolic fit 
  if SD step is uphill              .... YES
Do Correction to SD step            .... YES
Scaling for length of correction
  compared to SD step               .... 0.333
Do parabolic fit to SD correction   .... YES
Only interpolate for parabolic fit  .... YES
Do update to length of
  SD step and correction            .... YES
Convergence Tolerances:
  Max. Gradient            TolMAXG  ....  2.0000e-03 Eh/bohr
  RMS Gradient             TolRMSG  ....  5.0000e-04 Eh/bohr
Storing full IRC trajectory in      .... optts+numfreq_IRC_Full_trj.xyz
Storing forward trajectory in       .... optts+numfreq_IRC_F_trj.xyz
Storing backward trajectory in      .... optts+numfreq_IRC_B_trj.xyz


 ...good, the file optts+numfreq.hess exists
Reading the hessian file           ...... done
Determining length of initial displacement:
  Requested energy change (quadratic behavior): 2.000 mEh
  Resulting scaling factor for initial displacement along normalized TS mode: 0.3076

         *************************************************************
         *                          FORWARD IRC                      *
         *************************************************************

Iteration    E(Eh)      dE(kcal/mol)  max(|G|)   RMS(G) 
Convergence thresholds                0.002000  0.000500            
    0       -11.549778   -1.021887    0.007606  0.003696
    1       -11.551572   -2.147772    0.010996  0.003304
    2       -11.553452   -3.327424    0.007534  0.002625
    3       -11.554425   -3.937833    0.004572  0.001279
    4       -11.554599   -4.047528    0.004316  0.001624
    5       -11.554638   -4.071908    0.002989  0.000998
    6       -11.554674   -4.094499    0.002713  0.000769
    7       -11.554722   -4.124685    0.002288  0.000604
    8       -11.554765   -4.151299    0.001854  0.000521
    9       -11.554797   -4.171262    0.001461  0.000387

                      ***********************HURRAY********************
                      ***            THE IRC HAS CONVERGED          ***
                      *************************************************


         *************************************************************
         *                          BACKWARD IRC                     *
         *************************************************************

Iteration    E(Eh)      dE(kcal/mol)  max(|G|)   RMS(G) 
Convergence thresholds                0.002000  0.000500            
    0       -11.549792   -1.030822    0.007581  0.003698
    1       -11.551589   -2.158573    0.010773  0.003304
    2       -11.553465   -3.335473    0.008017  0.002616
    3       -11.554429   -3.940323    0.004555  0.001276
    4       -11.554599   -4.047079    0.004335  0.001636
    5       -11.554638   -4.071505    0.002998  0.001002
    6       -11.554673   -4.093948    0.002724  0.000771
    7       -11.554722   -4.124234    0.002296  0.000606
    8       -11.554764   -4.150934    0.001862  0.000523
    9       -11.554796   -4.170981    0.001468  0.000389

                      ***********************HURRAY********************
                      ***            THE IRC HAS CONVERGED          ***
                      *************************************************


---------------------------------------------------------------
                       IRC PATH SUMMARY              
---------------------------------------------------------------
All gradients are in Eh/Bohr.

Step        E(Eh)      dE(kcal/mol)  max(|G|)   RMS(G) 
   1       -11.554796   -4.170981    0.001468  0.000389
   2       -11.554764   -4.150934    0.001862  0.000523
   3       -11.554722   -4.124234    0.002296  0.000606
   4       -11.554673   -4.093948    0.002724  0.000771
   5       -11.554638   -4.071505    0.002998  0.001002
   6       -11.554599   -4.047079    0.004335  0.001636
   7       -11.554429   -3.940323    0.004555  0.001276
   8       -11.553465   -3.335473    0.008017  0.002616
   9       -11.551589   -2.158573    0.010773  0.003304
  10       -11.549792   -1.030822    0.007581  0.003698
  11       -11.548149    0.000000    0.000222  0.000075 <= TS
  12       -11.549778   -1.021887    0.007606  0.003696
  13       -11.551572   -2.147772    0.010996  0.003304
  14       -11.553452   -3.327424    0.007534  0.002625
  15       -11.554425   -3.937833    0.004572  0.001279
  16       -11.554599   -4.047528    0.004316  0.001624
  17       -11.554638   -4.071908    0.002989  0.000998
  18       -11.554674   -4.094499    0.002713  0.000769
  19       -11.554722   -4.124685    0.002288  0.000604
  20       -11.554765   -4.151299    0.001854  0.000521
  21       -11.554797   -4.171262    0.001461  0.000387

Timings for individual modules:

Sum of individual times         ...        5.283 sec (=   0.088 min)
Geometry relaxation             ...        0.817 sec (=   0.014 min)  15.5 %
XTB module                      ...        4.467 sec (=   0.074 min)  84.5 %
                             ****ORCA TERMINATED NORMALLY****
TOTAL RUN TIME: 0 days 0 hours 0 minutes 35 seconds 468 msec
